
         
 *******************************************************************************
 *                                                                             *
 *                                CRYSTAL09                                    *
 *                              public : 1.0                                   *
 *                      March 5th, 2010 - sequential executable                *
 *                                                                             *
 *                                                                             *
 *                                                                             *
 *                              MAIN AUTHORS                                   *
 *                                                                             *
 *    R. DOVESI(1,10), V.R. SAUNDERS(2), C. ROETTI(1,10), R. ORLANDO (1,3),    *
 *  C.M. ZICOVICH-WILSON(1,4), F. PASCALE(5), B. CIVALLERI(1,10), K. DOLL(6),  *
 *       N.M. HARRISON(2,7), I. J. BUSH(2), Ph. D'ARCO(8), M. LLUNELL(9)       *
 *                                                                             *
 * (1) THEORETICAL CHEMISTRY GROUP - UNIVERSITA' DI TORINO - TORINO (ITALY)    *
 *      http://www.crystal.unito.it                                            *
 * (2) COMPUTATIONAL SCIENCE & ENGINEERING DEPARTMENT - CCLRC DARESBURY (UK)   *
 *     http://www.cse.clrc.ac.uk/cmg/CRYSTAL/                                  *
 * (3) UNIVERSITA' DEL PIEMONTE ORIENTALE - ALESSANDRIA (ITALY)                *
 * (4) UNIVERSIDAD AUTONOMA DEL ESTADO DE MORELOS - CUERNAVACA (MEXICO)        *
 * (5) UNIVERSITE' HENRI POINCARE' - NANCY (FRANCE)                            *
 * (6) MPI FUER FESTKOERPERFORSCHUNG - STUTTGART (GERMANY)                     *
 * (7) IMPERIAL COLLEGE - LONDON (UK)                                          *
 * (8) UNIVERSITE' PIERRE ET MARIE CURIE - PARIS (FRANCE)                      *
 * (9) UNIVERSIDAD DE BARCELONA - BARCELONA (SPAIN)                            *
 *(10) NIS - NANOSTRUCTURED INTERFACES AND SURFACES - TORINO (ITALY)           *
 *     http://www.crystal.unito.it                                             *
 *******************************************************************************
 EEEEEEEEEE STARTING  DATE 13 01 2016 TIME 10:45:32.1
 BFD Basis.                                                                      

 CRYSTAL CALCULATION
 (INPUT ACCORDING TO THE INTERNATIONAL TABLES FOR X-RAY CRYSTALLOGRAPHY)
 CRYSTAL FAMILY                       :  CUBIC       
 CRYSTAL CLASS  (GROTH - 1921)        :  CUBIC HEXAKISOCTAHEDRAL              

 SPACE GROUP (CENTROSYMMETRIC)        :  F D 3 M         

 SHIFT OF THE ORIGIN                  :    7/8    7/8    7/8

 LATTICE PARAMETERS  (ANGSTROMS AND DEGREES) - CONVENTIONAL CELL
        A           B           C        ALPHA        BETA       GAMMA
     5.43071     5.43071     5.43071    90.00000    90.00000    90.00000


 NUMBER OF IRREDUCIBLE ATOMS IN THE CONVENTIONAL CELL:    2

 INPUT COORDINATES

 ATOM AT. N.              COORDINATES
   1 214     0.000000000000E+00  0.000000000000E+00  0.000000000000E+00
   2 214     2.500000000000E-01  2.500000000000E-01  2.500000000000E-01

 *******************************************************************************

 << INFORMATION >>: FROM NOW ON, ALL COORDINATES REFER TO THE PRIMITIVE CELL

 *******************************************************************************

 LATTICE PARAMETERS  (ANGSTROMS AND DEGREES) - PRIMITIVE CELL
       A          B          C         ALPHA     BETA     GAMMA        VOLUME
    3.84009    3.84009    3.84009    60.00000  60.00000  60.00000     40.041455

 INPUT LIST - ATOM N.   2 NOT IRREDUCIBLE

 COORDINATES OF THE EQUIVALENT ATOMS (FRACTIONAL UNITS)

 N. ATOM EQUIV AT. N.          X                  Y                  Z

   1   1   1  214 SI    0.00000000000E+00  0.00000000000E+00  0.00000000000E+00
   2   1   2  214 SI    2.50000000000E-01  2.50000000000E-01  2.50000000000E-01


 NUMBER OF SYMMETRY OPERATORS         :   48
 *******************************************************************************
 * GEOMETRY EDITING - INPUT COORDINATES ARE GIVEN IN ANGSTROM         
 *******************************************************************************

 GEOMETRY NOW FULLY CONSISTENT WITH THE GROUP

 GCALCO - MAX INDICES DIRECT LATTICE VECTOR    14    14    14
 NO.OF VECTORS CREATED 6999 STARS  105 RMAX    76.79793 BOHR

 GEOMETRY FOR WAVE FUNCTION - DIMENSIONALITY OF THE SYSTEM    3
 (NON PERIODIC DIRECTION: LATTICE PARAMETER FORMALLY SET TO 500)
 *******************************************************************************
 LATTICE PARAMETERS (ANGSTROMS AND DEGREES) - BOHR = 0.5291772083 ANGSTROM
 PRIMITIVE CELL - CENTRING CODE 5/0 VOLUME=    40.041455 - DENSITY  2.320 g/cm^3
         A              B              C           ALPHA      BETA       GAMMA 
     3.84009187     3.84009187     3.84009187    60.000000  60.000000  60.000000
 *******************************************************************************
 ATOMS IN THE ASYMMETRIC UNIT    1 - ATOMS IN THE UNIT CELL:    2
     ATOM              X/A                 Y/B                 Z/C    
 *******************************************************************************
   1 T 214 SI    0.000000000000E+00  0.000000000000E+00  0.000000000000E+00
   2 F 214 SI    2.500000000000E-01  2.500000000000E-01  2.500000000000E-01

 TRANSFORMATION MATRIX PRIMITIVE-CRYSTALLOGRAPHIC CELL
 -1.0000  1.0000  1.0000  1.0000 -1.0000  1.0000  1.0000  1.0000 -1.0000

 *******************************************************************************
 CRYSTALLOGRAPHIC CELL (VOLUME=        160.16581805)
         A              B              C           ALPHA      BETA       GAMMA 
     5.43071000     5.43071000     5.43071000    90.000000  90.000000  90.000000

 COORDINATES IN THE CRYSTALLOGRAPHIC CELL
     ATOM              X/A                 Y/B                 Z/C    
 *******************************************************************************
   1 T 214 SI    0.000000000000E+00  0.000000000000E+00  0.000000000000E+00
   2 F 214 SI    2.500000000000E-01 -2.500000000000E-01 -2.500000000000E-01

 T = ATOM BELONGING TO THE ASYMMETRIC UNIT

 ****  48 SYMMOPS - TRANSLATORS IN FRACTIONAL UNITS
  V INV                   ROTATION MATRICES                       TRANSLATOR
  1  1  1.00  0.00  0.00  0.00  1.00  0.00  0.00  0.00  1.00    0.00  0.00  0.00
  2  2  0.00  1.00  0.00  1.00  0.00  0.00 -1.00 -1.00 -1.00    0.00  0.00  0.00
  3  3 -1.00 -1.00 -1.00  0.00  0.00  1.00  0.00  1.00  0.00    0.00  0.00  0.00
  4  4  0.00  0.00  1.00 -1.00 -1.00 -1.00  1.00  0.00  0.00    0.00  0.00  0.00
  5  6  0.00  0.00  1.00  1.00  0.00  0.00  0.00  1.00  0.00    0.00  0.00  0.00
  6  5  0.00  1.00  0.00  0.00  0.00  1.00  1.00  0.00  0.00    0.00  0.00  0.00
  7  8  1.00  0.00  0.00  0.00  0.00  1.00 -1.00 -1.00 -1.00    0.00  0.00  0.00
  8  7  1.00  0.00  0.00 -1.00 -1.00 -1.00  0.00  1.00  0.00    0.00  0.00  0.00
  9 10 -1.00 -1.00 -1.00  0.00  1.00  0.00  1.00  0.00  0.00    0.00  0.00  0.00
 10  9  0.00  0.00  1.00  0.00  1.00  0.00 -1.00 -1.00 -1.00    0.00  0.00  0.00
 11 12  0.00  1.00  0.00 -1.00 -1.00 -1.00  0.00  0.00  1.00    0.00  0.00  0.00
 12 11 -1.00 -1.00 -1.00  1.00  0.00  0.00  0.00  0.00  1.00    0.00  0.00  0.00
 13 13  0.00 -1.00  0.00 -1.00  0.00  0.00  0.00  0.00 -1.00    0.25  0.25  0.25
 14 14 -1.00  0.00  0.00  0.00 -1.00  0.00  1.00  1.00  1.00    0.25  0.25  0.25
 15 16  0.00  0.00 -1.00  1.00  1.00  1.00  0.00 -1.00  0.00    0.25  0.25  0.25
 16 15  1.00  1.00  1.00  0.00  0.00 -1.00 -1.00  0.00  0.00    0.25  0.25  0.25
 17 17 -1.00  0.00  0.00  0.00  0.00 -1.00  0.00 -1.00  0.00    0.25  0.25  0.25
 18 18  0.00  0.00 -1.00  0.00 -1.00  0.00 -1.00  0.00  0.00    0.25  0.25  0.25
 19 21  0.00  0.00 -1.00 -1.00  0.00  0.00  1.00  1.00  1.00    0.25  0.25  0.25
 20 22  1.00  1.00  1.00 -1.00  0.00  0.00  0.00 -1.00  0.00    0.25  0.25  0.25
 21 19  0.00 -1.00  0.00  1.00  1.00  1.00 -1.00  0.00  0.00    0.25  0.25  0.25
 22 20  0.00 -1.00  0.00  0.00  0.00 -1.00  1.00  1.00  1.00    0.25  0.25  0.25
 23 23  1.00  1.00  1.00  0.00 -1.00  0.00  0.00  0.00 -1.00    0.25  0.25  0.25
 24 24 -1.00  0.00  0.00  1.00  1.00  1.00  0.00  0.00 -1.00    0.25  0.25  0.25
 25 25 -1.00  0.00  0.00  0.00 -1.00  0.00  0.00  0.00 -1.00    0.25  0.25  0.25
 26 26  0.00 -1.00  0.00 -1.00  0.00  0.00  1.00  1.00  1.00    0.25  0.25  0.25
 27 27  1.00  1.00  1.00  0.00  0.00 -1.00  0.00 -1.00  0.00    0.25  0.25  0.25
 28 28  0.00  0.00 -1.00  1.00  1.00  1.00 -1.00  0.00  0.00    0.25  0.25  0.25
 29 30  0.00  0.00 -1.00 -1.00  0.00  0.00  0.00 -1.00  0.00    0.25  0.25  0.25
 30 29  0.00 -1.00  0.00  0.00  0.00 -1.00 -1.00  0.00  0.00    0.25  0.25  0.25
 31 32 -1.00  0.00  0.00  0.00  0.00 -1.00  1.00  1.00  1.00    0.25  0.25  0.25
 32 31 -1.00  0.00  0.00  1.00  1.00  1.00  0.00 -1.00  0.00    0.25  0.25  0.25
 33 34  1.00  1.00  1.00  0.00 -1.00  0.00 -1.00  0.00  0.00    0.25  0.25  0.25
 34 33  0.00  0.00 -1.00  0.00 -1.00  0.00  1.00  1.00  1.00    0.25  0.25  0.25
 35 36  0.00 -1.00  0.00  1.00  1.00  1.00  0.00  0.00 -1.00    0.25  0.25  0.25
 36 35  1.00  1.00  1.00 -1.00  0.00  0.00  0.00  0.00 -1.00    0.25  0.25  0.25
 37 37  0.00  1.00  0.00  1.00  0.00  0.00  0.00  0.00  1.00    0.00  0.00  0.00
 38 38  1.00  0.00  0.00  0.00  1.00  0.00 -1.00 -1.00 -1.00    0.00  0.00  0.00
 39 40  0.00  0.00  1.00 -1.00 -1.00 -1.00  0.00  1.00  0.00    0.00  0.00  0.00
 40 39 -1.00 -1.00 -1.00  0.00  0.00  1.00  1.00  0.00  0.00    0.00  0.00  0.00
 41 41  1.00  0.00  0.00  0.00  0.00  1.00  0.00  1.00  0.00    0.00  0.00  0.00
 42 42  0.00  0.00  1.00  0.00  1.00  0.00  1.00  0.00  0.00    0.00  0.00  0.00
 43 45  0.00  0.00  1.00  1.00  0.00  0.00 -1.00 -1.00 -1.00    0.00  0.00  0.00
 44 46 -1.00 -1.00 -1.00  1.00  0.00  0.00  0.00  1.00  0.00    0.00  0.00  0.00
 45 43  0.00  1.00  0.00 -1.00 -1.00 -1.00  1.00  0.00  0.00    0.00  0.00  0.00
 46 44  0.00  1.00  0.00  0.00  0.00  1.00 -1.00 -1.00 -1.00    0.00  0.00  0.00
 47 47 -1.00 -1.00 -1.00  0.00  1.00  0.00  0.00  0.00  1.00    0.00  0.00  0.00
 48 48  1.00  0.00  0.00 -1.00 -1.00 -1.00  0.00  0.00  1.00    0.00  0.00  0.00

 DIRECT LATTICE VECTORS CARTESIAN COMPONENTS (ANGSTROM)
          X                    Y                    Z
   0.000000000000E+00   0.271535500000E+01   0.271535500000E+01
   0.271535500000E+01   0.000000000000E+00   0.271535500000E+01
   0.271535500000E+01   0.271535500000E+01   0.000000000000E+00


 CARTESIAN COORDINATES - PRIMITIVE CELL
 *******************************************************************************
 *      ATOM          X(ANGSTROM)         Y(ANGSTROM)         Z(ANGSTROM)
 *******************************************************************************
   1   214 SI    0.000000000000E+00  0.000000000000E+00  0.000000000000E+00
   2   214 SI    1.357677500000E+00 -1.357677500000E+00 -1.357677500000E+00

 *******************************************************************************
 *** PSEUDOPOTENTIAL INFORMATION ***
 *******************************************************************************

 ATOMIC NUMBER  14, NUCLEAR CHARGE  4.000, GIVEN IN INPUT       PSEUDOPOTENTIAL
   TYPE       EXPONENT      COEFF.    N      EXPONENT      COEFF.    N
  W0 TMS     1.8072106    4.0000000  -1     9.9963309    7.2288425   1
             2.5004323  -13.0672559   0
  P0 TMS     2.2668640   21.2053161   0
  P1 TMS     2.1165966   15.4369360   0

 *******************************************************************************
 LOCAL ATOMIC FUNCTIONS BASIS SET
 *******************************************************************************
   ATOM  X(AU)  Y(AU)  Z(AU)    NO. TYPE  EXPONENT  S COEF   P COEF   D/F/G COEF
 *******************************************************************************
   1 SI  0.000  0.000  0.000
                                  1 S  
                                         2.827E-01 4.643E-01 0.000E+00 0.000E+00
                                         6.141E-01-2.322E-03 0.000E+00 0.000E+00
                                         1.334E+00-2.682E-01 0.000E+00 0.000E+00
                                         2.899E+00 3.192E-02 0.000E+00 0.000E+00
                                         6.297E+00-1.060E-04 0.000E+00 0.000E+00
                                         1.368E+01-1.450E-04 0.000E+00 0.000E+00
                                         2.972E+01 6.700E-05 0.000E+00 0.000E+00
                                  2 S  
                                         5.075E-01 1.000E+00 0.000E+00 0.000E+00
                             3-   5 P  
                                         3.308E-01 0.000E+00 2.817E-01 0.000E+00
                                         6.897E-01 0.000E+00 6.988E-02 0.000E+00
                                         1.438E+00 0.000E+00-5.631E-02 0.000E+00
                                         2.997E+00 0.000E+00 7.440E-04 0.000E+00
                                         6.247E+00 0.000E+00-2.590E-04 0.000E+00
                                         1.302E+01 0.000E+00-2.200E-05 0.000E+00
                             6-   8 P  
                                         1.468E-01 0.000E+00 1.000E+00 0.000E+00
                             9-  13 D  
                                         1.704E-01 0.000E+00 0.000E+00 1.000E+00
                            14-  18 D  
                                         5.398E-01 0.000E+00 0.000E+00 1.000E+00
                            19-  25 F  
                                         3.530E-01 0.000E+00 0.000E+00 1.000E+00
   2 SI  2.566 -2.566 -2.566
 INFORMATION **** MAXCYCLE **** MAX NUMBER OF SCF CYCLES SET TO         100
 INFORMATION **** SAVEWF **** not fully tested
 INFORMATION **** READM2 **** FULL DIRECT SCF (MONO AND BIEL INT) SELECTED
 INFORMATION **** TOLDEE **** SCF TOL ON TOTAL ENERGY SET TO           6

 MODIFIED BROYDEN MIXING OF THE FOCK MATRIX
 WO PARAMETER(D.D. Johnson, PRB38, 12807,(1988)             1.0000E-04
 % OF FOCK/KS MATRICES MIXING WHEN BROYDEN METHOD IS ON             50
 NUMBER OF SCF ITERATIONS AFTER WHICH BROYDEN METHOD IS ACTIVE       2
 INFORMATION **** GUESSP **** SCF GUESS FROM A PREVIOUS RUN DENSITY MATRIX
 *******************************************************************************
 N. OF ATOMS PER CELL        2  COULOMB OVERLAP TOL         (T1) 10** -6
 NUMBER OF SHELLS           14  COULOMB PENETRATION TOL     (T2) 10** -6
 NUMBER OF AO               50  EXCHANGE OVERLAP TOL        (T3) 10** 20
 N. OF ELECTRONS PER CELL    8  EXCHANGE PSEUDO OVP (F(G))  (T4) 10** 20
 CORE ELECTRONS PER CELL     0  EXCHANGE PSEUDO OVP (P(G))  (T5) 10** 20
 N. OF SYMMETRY OPERATORS   48  POLE ORDER IN MONO ZONE                4
 *******************************************************************************
 TYPE OF CALCULATION :  RESTRICTED CLOSED SHELL
 KOHN-SHAM HAMILTONIAN

 (EXCHANGE)[CORRELATION] FUNCTIONAL:(PERDEW-BURKE-ERNZERHOF)[PERDEW-BURKE-ERNZERHOF]

 CORE  PSEUDO POTENTIAL         TOL. ON PSEUDO              (TP) 10**- 6

 CAPPA:IS1  8;IS2  8;IS3  8; K PTS MONK NET   29; SYMMOPS: K SPACE 48;G SPACE 48

 *******************************************************************************
 MAX NUMBER OF SCF CYCLES     100  CONVERGENCE ON DELTAP        10**-16
 WEIGHT OF F(I) IN F(I+1)      50% CONVERGENCE ON ENERGY        10**- 6
 SHRINK. FACT.(MONKH.)    8  8  8  NUMBER OF K POINTS IN THE IBZ     29
 SHRINKING FACTOR(GILAT NET)   16  NUMBER OF K POINTS(GILAT NET)    145
 *******************************************************************************
 *** K POINTS COORDINATES (OBLIQUE COORDINATES IN UNITS OF IS =  8)
   1-R(  0  0  0)   2-C(  1  0  0)   3-C(  2  0  0)   4-C(  3  0  0)
   5-R(  4  0  0)   6-C(  1  1  0)   7-C(  2  1  0)   8-C(  3  1  0)
   9-C(  4  1  0)  10-C(  5  1  0)  11-C(  6  1  0)  12-C(  7  1  0)
  13-C(  2  2  0)  14-C(  3  2  0)  15-C(  4  2  0)  16-C(  5  2  0)
  17-C(  6  2  0)  18-C(  3  3  0)  19-C(  4  3  0)  20-C(  5  3  0)
  21-R(  4  4  0)  22-C(  3  2  1)  23-C(  4  2  1)  24-C(  5  2  1)
  25-C(  4  3  1)  26-C(  5  3  1)  27-C(  6  3  1)  28-C(  5  4  1)
  29-C(  6  4  2)

 DIRECT LATTICE VECTORS COMPON. (A.U.)     RECIP. LATTICE VECTORS COMPON. (A.U.) 
        X            Y            Z              X            Y            Z
    0.0000000    5.1312773    5.1312773     -0.6122438    0.6122438    0.6122438
    5.1312773    0.0000000    5.1312773      0.6122438   -0.6122438    0.6122438
    5.1312773    5.1312773    0.0000000      0.6122438    0.6122438   -0.6122438

 DISK SPACE FOR EIGENVECTORS (FTN 10)     137500 REALS

 SYMMETRY ADAPTION OF THE BLOCH FUNCTIONS ENABLED

 DIMENSIONS  P(G)=   42058 F(G)=   21534 P(G),F(G) (IRR)    1735
 MAX G-VECTOR INDEX FOR 1- AND 2-ELECTRON INTEGRALS  81

 TTTTTTTTTTTTTTTTTTTTTTTTTTTTTT INPUT       TELAPSE        0.01 TCPU        0.01

 NEIGHBORS OF THE NON-EQUIVALENT ATOMS

 N = NUMBER OF NEIGHBORS AT DISTANCE R
    ATOM  N     R/ANG      R/AU   NEIGHBORS (ATOM LABELS AND CELL INDICES)
   1 SI   4     2.3516     4.4438   2 SI   0 0 0   2 SI   1 0 0   2 SI   1 0-1
                                    2 SI   1-1 0
   1 SI  12     3.8401     7.2567   1 SI  -1 0 0   1 SI   1 0 0   1 SI  -1 0 1
                                    1 SI   1 0-1   1 SI  -1 1 0   1 SI   1-1 0
                                    1 SI   0-1 0   1 SI   0 1 0   1 SI   0-1 1
                                    1 SI   0 1-1   1 SI   0 0-1   1 SI   0 0 1
   1 SI  12     4.5029     8.5093   2 SI   0 1 0   2 SI   0-1 0   2 SI   0 1-1
                                    2 SI   0-1 1   2 SI   0 0 1   2 SI   0 0-1
                                    2 SI   1 1-1   2 SI   1-1 1   2 SI   1-1-1
                                    2 SI   2 0-1   2 SI   2-1 0   2 SI   2-1-1
   1 SI   6     5.4307    10.2626   1 SI  -1-1 1   1 SI   1 1-1   1 SI  -1 1-1
                                    1 SI   1-1 1   1 SI  -1 1 1   1 SI   1-1-1
   1 SI  12     5.9180    11.1834   2 SI  -1 0 0   2 SI  -1 0 1   2 SI  -1 1 0
                                    2 SI   1 1 0   2 SI   1 1-2   2 SI   1 0 1
                                    2 SI   1 0-2   2 SI   1-2 1   2 SI   1-2 0
                                    2 SI   2 0 0   2 SI   2 0-2   2 SI   2-2 0
   1 SI  24     6.6512    12.5690   1 SI  -2 0 1   1 SI   2 0-1   1 SI  -2 1 0
                                    1 SI   2-1 0   1 SI  -2 1 1   1 SI   2-1-1
                                    1 SI  -1-1 0   1 SI   1 1 0   1 SI  -1-1 2
                                    1 SI   1 1-2   1 SI  -1 0-1   1 SI   1 0 1
                                    1 SI  -1 0 2   1 SI   1 0-2   1 SI  -1 2-1
                                    1 SI   1-2 1   1 SI  -1 2 0   1 SI   1-2 0
                                    1 SI   0-2 1   1 SI   0 2-1   1 SI   0-1-1
                                    1 SI   0 1 1   1 SI   0-1 2   1 SI   0 1-2


 THERE ARE NO SYMMETRY ALLOWED DIRECTIONS
 TTTTTTTTTTTTTTTTTTTTTTTTTTTTTT SYMM        TELAPSE        0.06 TCPU        0.02
 TTTTTTTTTTTTTTTTTTTTTTTTTTTTTT INT_SCREEN  TELAPSE        0.06 TCPU        0.02
 INFORMATION **** EXCBUF **** EXCH. BIPO BUFFER: WORDS USED =           0

 DFT PARAMETERS

     ATOM       ELECTRONS   NET CHARGE   R(ANGSTROM)
   1 214  SI      4.0000      0.0000     1.17000000

 SIZE OF GRID=        469
 TTTTTTTTTTTTTTTTTTTTTTTTTTTTTT MAKE_GRID2  TELAPSE        0.09 TCPU        0.06
 BECKE WEIGHT FUNCTION
 RADSAFE =     2.00
 TOLERANCES - DENSITY:10**- 6; POTENTIAL:10**- 9; GRID WGT:10**-14

 RADIAL INTEGRATION  - INTERVALS (POINTS,UPPER LIMIT):            1( 55,  4.0*R)

 ANGULAR INTEGRATION - INTERVALS (ACCURACY LEVEL [N. POINTS] UPPER LIMIT):
  1(  1[  38]   0.4)  2(  2[  50]   0.6)  3(  5[ 110]   0.8)  4(  8[ 194]   0.9)
  5( 11[ 302]   1.1)  6( 13[ 434]   2.3)  7( 11[ 302]   2.4)  8(  8[ 194]   2.6)
  9(  5[ 110]   2.8) 10(  1[  38]9999.0)
 EEEEEEEEEE INT_CALC TERMINATION  DATE 13 01 2016 TIME 10:45:32.2

 *******************************************************************************
 BFD Basis.                                                                      
 CRYSTAL - SCF - TYPE OF CALCULATION :  RESTRICTED CLOSED SHELL
 *******************************************************************************

 CAPPA:IS1  8;IS2  8;IS3  8; K PTS MONK NET   29; SYMMOPS: K SPACE 48;G SPACE 48


 INFORMATION FROM INTEGRAL EVALUATION

 RESTART FROM A PREVIOUS DENSITY MATRIX - DEP ACTIVE
 NUMBER OF COUPLE SETS (NEW, OLD, FOUND):      56      56      56
 NUMBER OF IRREDUCIBLE G VECTORS        :     131     131     131

 *******************************************************************************
 LOCAL ATOMIC FUNCTIONS BASIS SET
 *******************************************************************************
   ATOM  X(AU)  Y(AU)  Z(AU)    NO. TYPE  EXPONENT  S COEF   P COEF   D/F/G COEF
 *******************************************************************************
   1 SI  0.000  0.000  0.000
                                  1 S  
                                         2.827E-01 9.002E-01 0.000E+00 0.000E+00
                                         6.141E-01-8.056E-03 0.000E+00 0.000E+00
                                         1.334E+00-1.665E+00 0.000E+00 0.000E+00
                                         2.899E+00 3.547E-01 0.000E+00 0.000E+00
                                         6.297E+00-2.107E-03 0.000E+00 0.000E+00
                                         1.368E+01-5.159E-03 0.000E+00 0.000E+00
                                         2.972E+01 4.266E-03 0.000E+00 0.000E+00
                                  2 S  
                                         5.075E-01 1.042E+00 0.000E+00 0.000E+00
                             3-   5 P  
                                         3.308E-01 0.000E+00 7.861E-01 0.000E+00
                                         6.897E-01 0.000E+00 4.885E-01 0.000E+00
                                         1.438E+00 0.000E+00-9.859E-01 0.000E+00
                                         2.997E+00 0.000E+00 3.263E-02 0.000E+00
                                         6.247E+00 0.000E+00-2.845E-02 0.000E+00
                                         1.302E+01 0.000E+00-6.053E-03 0.000E+00
                             6-   8 P  
                                         1.468E-01 0.000E+00 3.149E-01 0.000E+00
                             9-  13 D  
                                         1.704E-01 0.000E+00 0.000E+00 1.809E-01
                            14-  18 D  
                                         5.398E-01 0.000E+00 0.000E+00 1.361E+00
                            19-  25 F  
                                         3.530E-01 0.000E+00 0.000E+00 3.439E-01
   2 SI  2.566 -2.566 -2.566
 TTTTTTTTTTTTTTTTTTTTTTTTTTTTTT SDIK        TELAPSE        0.16 TCPU        0.11
 CHARGE NORMALIZATION FACTOR   1.00000000
 TOTAL ATOMIC CHARGES:
   4.0000000   4.0000000
 TTTTTTTTTTTTTTTTTTTTTTTTTTTTTT MOQGAD      TELAPSE        0.20 TCPU        0.15
 TTTTTTTTTTTTTTTTTTTTTTTTTTTTTT SHELLX      TELAPSE        1.71 TCPU        1.66
 TTTTTTTTTTTTTTTTTTTTTTTTTTTTTT MONMO3      TELAPSE        2.38 TCPU        2.33
 NUMERICALLY INTEGRATED DENSITY      8.0016574196
 TTTTTTTTTTTTTTTTTTTTTTTTTTTTTT NUMDFT      TELAPSE        2.79 TCPU        2.74
 CYC   0 ETOT(AU) -7.855800076068E+00 DETOT -7.86E+00 tst  0.00E+00 PX  1.00E+00
 CYCLE  0 WAVE FUNCTION SAVED IN FORTRAN UNIT 79
 TTTTTTTTTTTTTTTTTTTTTTTTTTTTTT FDIK        TELAPSE        2.82 TCPU        2.77
 INSULATING STATE
 TOP OF VALENCE BANDS -    BAND      4; K    1; EIG -2.7769196E-01 AU
 BOTTOM OF VIRTUAL BANDS - BAND      5; K   18; EIG -2.5495721E-01 AU
 BOTTOM OF VIRTUAL BANDS - BAND      5; K    1; EIG -1.8322600E-01 AU
 TTTTTTTTTTTTTTTTTTTTTTTTTTTTTT PDIG        TELAPSE        2.82 TCPU        2.77
 CHARGE NORMALIZATION FACTOR   1.00000000
 TOTAL ATOMIC CHARGES:
   4.0000000   4.0000000
 TTTTTTTTTTTTTTTTTTTTTTTTTTTTTT MOQGAD      TELAPSE        2.85 TCPU        2.80
 TTTTTTTTTTTTTTTTTTTTTTTTTTTTTT SHELLX      TELAPSE        4.33 TCPU        4.28
 TTTTTTTTTTTTTTTTTTTTTTTTTTTTTT MONMO3      TELAPSE        5.02 TCPU        4.97
 NUMERICALLY INTEGRATED DENSITY      8.0016573560
 TTTTTTTTTTTTTTTTTTTTTTTTTTTTTT NUMDFT      TELAPSE        5.41 TCPU        5.36
 CYC   1 ETOT(AU) -7.855800076817E+00 DETOT -7.49E-10 tst  0.00E+00 PX  4.93E-06
 CYCLE  1 WAVE FUNCTION SAVED IN FORTRAN UNIT 79
 TTTTTTTTTTTTTTTTTTTTTTTTTTTTTT FDIK        TELAPSE        5.43 TCPU        5.38
 INSULATING STATE
 TOP OF VALENCE BANDS -    BAND      4; K    1; EIG -2.7768989E-01 AU
 BOTTOM OF VIRTUAL BANDS - BAND      5; K   18; EIG -2.5495552E-01 AU
 BOTTOM OF VIRTUAL BANDS - BAND      5; K    1; EIG -1.8322426E-01 AU
 TTTTTTTTTTTTTTTTTTTTTTTTTTTTTT PDIG        TELAPSE        5.43 TCPU        5.38
 CHARGE NORMALIZATION FACTOR   1.00000000
 TOTAL ATOMIC CHARGES:
   4.0000000   4.0000000
 TTTTTTTTTTTTTTTTTTTTTTTTTTTTTT MOQGAD      TELAPSE        5.46 TCPU        5.41
 TTTTTTTTTTTTTTTTTTTTTTTTTTTTTT SHELLX      TELAPSE        6.94 TCPU        6.89
 +++ ENERGIES IN A.U. +++
 ::: EXT EL-POLE                                  -9.8456512706207E+01
 ::: EXT EL-SPHEROPOLE                             2.0412925710246E+00
 ::: BIELET ZONE E-E                               9.6956005438175E+01
 ::: TOTAL E-E                                     5.4078530299203E-01
 ::: TOTAL E-N + N-E                              -6.5777790870967E-01
 ::: TOTAL N-N                                    -8.3983737701781E+00
 ::: KINETIC ENERGY                                3.0693729104387E+00
 ::: PSEUDO TOTAL   ENERGY                        -5.4459934654570E+00
 ::: VIRIAL COEFFICIENT                            7.2090213737065E-01
 TTTTTTTTTTTTTTTTTTTTTTTTTTTTTT MONMO3      TELAPSE        7.61 TCPU        7.56
 NUMERICALLY INTEGRATED DENSITY      8.0016573610
 TTTTTTTTTTTTTTTTTTTTTTTTTTTTTT NUMDFT      TELAPSE        8.00 TCPU        7.95
 CYC   2 ETOT(AU) -7.855800076713E+00 DETOT  1.04E-10 tst  1.96E-13 PX  4.93E-06

 == SCF ENDED - CONVERGENCE ON ENERGY      E(AU) -7.8558000767129E+00 CYCLES   2


 ENERGY EXPRESSION=HARTREE+FOCK EXCH*0.00000+(PBE    EXCH)*1.00000+PBE    CORR


 TOTAL ENERGY(DFT)(AU)(  2) -7.8558000767129E+00 DE 1.0E-10 tester 2.0E-13
 TTTTTTTTTTTTTTTTTTTTTTTTTTTTTT EDFT        TELAPSE        8.00 TCPU        7.95

  FINAL EIGENVALUES (A.U.)
  (LABELS REFER TO SYMMETRY CLASSIFICATION)

   1 (  0  0  0)
 -6.2047E-01( 1) -2.7769E-01( 3) -2.7769E-01( 3) -2.7769E-01( 3) -1.8322E-01( 4)
 -1.8322E-01( 4) -1.8322E-01( 4) -1.4916E-01( 2)

  FINAL EIGENVECTORS

   1 (  0  0  0)


               1           2           3           4           5           6           7           8           9          10

    1     0.4796       0.000       0.000       0.000       0.000       0.000       0.000     -0.5091       0.000       0.000    
    2     0.1928       0.000       0.000       0.000       0.000       0.000       0.000     -0.2794       0.000       0.000    
    3      0.000      0.2763       0.000       0.000      0.2528       0.000       0.000       0.000       0.000       0.000    
    4      0.000       0.000      0.2763       0.000       0.000      0.2528       0.000       0.000       0.000       0.000    
    5      0.000       0.000       0.000      0.2763       0.000       0.000      0.2528       0.000       0.000       0.000    
    6      0.000      0.3313       0.000       0.000      0.2679       0.000       0.000       0.000       0.000       0.000    
    7      0.000       0.000      0.3313       0.000       0.000      0.2679       0.000       0.000       0.000       0.000    
    8      0.000       0.000       0.000      0.3313       0.000       0.000      0.2679       0.000       0.000       0.000    
    9      0.000       0.000       0.000       0.000       0.000       0.000       0.000       0.000     -0.4276       0.000    
   10      0.000       0.000      0.1199       0.000       0.000     -0.2542       0.000       0.000       0.000       0.000    
   11      0.000      0.1199       0.000       0.000     -0.2542       0.000       0.000       0.000       0.000       0.000    
   12      0.000       0.000       0.000       0.000       0.000       0.000       0.000       0.000       0.000     -0.4276    
   13      0.000       0.000       0.000      0.1199       0.000       0.000     -0.2542       0.000       0.000       0.000    
   14      0.000       0.000       0.000       0.000       0.000       0.000       0.000       0.000     -0.1972       0.000    
   15      0.000       0.000      0.7786E-01   0.000       0.000     -0.8284E-01   0.000       0.000       0.000       0.000    
   16      0.000      0.7786E-01   0.000       0.000     -0.8284E-01   0.000       0.000       0.000       0.000       0.000    
   17      0.000       0.000       0.000       0.000       0.000       0.000       0.000       0.000       0.000     -0.1972    
   18      0.000       0.000       0.000      0.7786E-01   0.000       0.000     -0.8284E-01   0.000       0.000       0.000    
   19      0.000       0.000       0.000     -0.6679E-02   0.000       0.000      0.3116E-01   0.000       0.000       0.000    
   20      0.000      0.4090E-02   0.000       0.000     -0.1908E-01   0.000       0.000       0.000       0.000       0.000    
   21      0.000       0.000      0.4090E-02   0.000       0.000     -0.1908E-01   0.000       0.000       0.000       0.000    
   22      0.000       0.000       0.000       0.000       0.000       0.000       0.000       0.000       0.000       0.000    
   23    -0.1125E-01   0.000       0.000       0.000       0.000       0.000       0.000      0.1439       0.000       0.000    
   24      0.000     -0.5280E-02   0.000       0.000      0.2463E-01   0.000       0.000       0.000       0.000       0.000    
   25      0.000       0.000      0.5280E-02   0.000       0.000     -0.2463E-01   0.000       0.000       0.000       0.000    
   26     0.4796       0.000       0.000       0.000       0.000       0.000       0.000      0.5091       0.000       0.000    
   27     0.1928       0.000       0.000       0.000       0.000       0.000       0.000      0.2794       0.000       0.000    
   28      0.000     -0.2763       0.000       0.000      0.2528       0.000       0.000       0.000       0.000       0.000    
   29      0.000       0.000     -0.2763       0.000       0.000      0.2528       0.000       0.000       0.000       0.000    
   30      0.000       0.000       0.000     -0.2763       0.000       0.000      0.2528       0.000       0.000       0.000    
   31      0.000     -0.3313       0.000       0.000      0.2679       0.000       0.000       0.000       0.000       0.000    
   32      0.000       0.000     -0.3313       0.000       0.000      0.2679       0.000       0.000       0.000       0.000    
   33      0.000       0.000       0.000     -0.3313       0.000       0.000      0.2679       0.000       0.000       0.000    
   34      0.000       0.000       0.000       0.000       0.000       0.000       0.000       0.000      0.4276       0.000    
   35      0.000       0.000      0.1199       0.000       0.000      0.2542       0.000       0.000       0.000       0.000    
   36      0.000      0.1199       0.000       0.000      0.2542       0.000       0.000       0.000       0.000       0.000    
   37      0.000       0.000       0.000       0.000       0.000       0.000       0.000       0.000       0.000      0.4276    
   38      0.000       0.000       0.000      0.1199       0.000       0.000      0.2542       0.000       0.000       0.000    
   39      0.000       0.000       0.000       0.000       0.000       0.000       0.000       0.000      0.1972       0.000    
   40      0.000       0.000      0.7786E-01   0.000       0.000      0.8284E-01   0.000       0.000       0.000       0.000    
   41      0.000      0.7786E-01   0.000       0.000      0.8284E-01   0.000       0.000       0.000       0.000       0.000    
   42      0.000       0.000       0.000       0.000       0.000       0.000       0.000       0.000       0.000      0.1972    
   43      0.000       0.000       0.000      0.7786E-01   0.000       0.000      0.8284E-01   0.000       0.000       0.000    
   44      0.000       0.000       0.000      0.6679E-02   0.000       0.000      0.3116E-01   0.000       0.000       0.000    
   45      0.000     -0.4090E-02   0.000       0.000     -0.1908E-01   0.000       0.000       0.000       0.000       0.000    
   46      0.000       0.000     -0.4090E-02   0.000       0.000     -0.1908E-01   0.000       0.000       0.000       0.000    
   47      0.000       0.000       0.000       0.000       0.000       0.000       0.000       0.000       0.000       0.000    
   48     0.1125E-01   0.000       0.000       0.000       0.000       0.000       0.000      0.1439       0.000       0.000    
   49      0.000      0.5280E-02   0.000       0.000      0.2463E-01   0.000       0.000       0.000       0.000       0.000    
   50      0.000       0.000     -0.5280E-02   0.000       0.000     -0.2463E-01   0.000       0.000       0.000       0.000    

              11          12          13          14          15          16          17          18          19          20

    1      0.000       0.000       0.000       0.000       0.000       0.000       0.000       0.000       0.000       0.000    
    2      0.000       0.000       0.000       0.000       0.000       0.000       0.000       0.000       0.000       0.000    
    3      0.000     -0.2297       0.000       0.000       0.000       0.000      0.1250       0.000       0.000     -0.6685    
    4      0.000       0.000     -0.2297       0.000       0.000       0.000       0.000      0.1250       0.000       0.000    
    5    -0.2297       0.000       0.000       0.000       0.000      0.1250       0.000       0.000     -0.6685       0.000    
    6      0.000     -0.5816       0.000       0.000       0.000       0.000     -0.3161       0.000       0.000      -2.784    
    7      0.000       0.000     -0.5816       0.000       0.000       0.000       0.000     -0.3161       0.000       0.000    
    8    -0.5816       0.000       0.000       0.000       0.000     -0.3161       0.000       0.000      -2.784       0.000    
    9      0.000       0.000       0.000       1.717       0.000       0.000       0.000       0.000       0.000       0.000    
   10      0.000       0.000      0.7687       0.000       0.000       0.000       0.000     -0.2602       0.000       0.000    
   11      0.000      0.7687       0.000       0.000       0.000       0.000     -0.2602       0.000       0.000      -2.213    
   12      0.000       0.000       0.000       0.000       1.717       0.000       0.000       0.000       0.000       0.000    
   13     0.7687       0.000       0.000       0.000       0.000     -0.2602       0.000       0.000      -2.213       0.000    
   14      0.000       0.000       0.000      0.4133       0.000       0.000       0.000       0.000       0.000       0.000    
   15      0.000       0.000      0.3768E-01   0.000       0.000       0.000       0.000      0.7151       0.000       0.000    
   16      0.000      0.3768E-01   0.000       0.000       0.000       0.000      0.7151       0.000       0.000     -0.1549    
   17      0.000       0.000       0.000       0.000      0.4133       0.000       0.000       0.000       0.000       0.000    
   18     0.3768E-01   0.000       0.000       0.000       0.000      0.7151       0.000       0.000     -0.1549       0.000    
   19     0.1077       0.000       0.000       0.000       0.000     -0.2288       0.000       0.000      0.1364E-02   0.000    
   20      0.000     -0.6597E-01   0.000       0.000       0.000       0.000      0.1401       0.000       0.000     -0.8353E-03
   21      0.000       0.000     -0.6597E-01   0.000       0.000       0.000       0.000      0.1401       0.000       0.000    
   22      0.000       0.000       0.000       0.000       0.000       0.000       0.000       0.000       0.000       0.000    
   23      0.000       0.000       0.000       0.000       0.000       0.000       0.000       0.000       0.000       0.000    
   24      0.000      0.8517E-01   0.000       0.000       0.000       0.000     -0.1809       0.000       0.000      0.1078E-02
   25      0.000       0.000     -0.8517E-01   0.000       0.000       0.000       0.000      0.1809       0.000       0.000    
   26      0.000       0.000       0.000       0.000       0.000       0.000       0.000       0.000       0.000       0.000    
   27      0.000       0.000       0.000       0.000       0.000       0.000       0.000       0.000       0.000       0.000    
   28      0.000      0.2297       0.000       0.000       0.000       0.000     -0.1250       0.000       0.000     -0.6685    
   29      0.000       0.000      0.2297       0.000       0.000       0.000       0.000     -0.1250       0.000       0.000    
   30     0.2297       0.000       0.000       0.000       0.000     -0.1250       0.000       0.000     -0.6685       0.000    
   31      0.000      0.5816       0.000       0.000       0.000       0.000      0.3161       0.000       0.000      -2.784    
   32      0.000       0.000      0.5816       0.000       0.000       0.000       0.000      0.3161       0.000       0.000    
   33     0.5816       0.000       0.000       0.000       0.000      0.3161       0.000       0.000      -2.784       0.000    
   34      0.000       0.000       0.000       1.717       0.000       0.000       0.000       0.000       0.000       0.000    
   35      0.000       0.000      0.7687       0.000       0.000       0.000       0.000     -0.2602       0.000       0.000    
   36      0.000      0.7687       0.000       0.000       0.000       0.000     -0.2602       0.000       0.000       2.213    
   37      0.000       0.000       0.000       0.000       1.717       0.000       0.000       0.000       0.000       0.000    
   38     0.7687       0.000       0.000       0.000       0.000     -0.2602       0.000       0.000       2.213       0.000    
   39      0.000       0.000       0.000      0.4133       0.000       0.000       0.000       0.000       0.000       0.000    
   40      0.000       0.000      0.3768E-01   0.000       0.000       0.000       0.000      0.7151       0.000       0.000    
   41      0.000      0.3768E-01   0.000       0.000       0.000       0.000      0.7151       0.000       0.000      0.1549    
   42      0.000       0.000       0.000       0.000      0.4133       0.000       0.000       0.000       0.000       0.000    
   43     0.3768E-01   0.000       0.000       0.000       0.000      0.7151       0.000       0.000      0.1549       0.000    
   44    -0.1077       0.000       0.000       0.000       0.000      0.2288       0.000       0.000      0.1364E-02   0.000    
   45      0.000      0.6597E-01   0.000       0.000       0.000       0.000     -0.1401       0.000       0.000     -0.8353E-03
   46      0.000       0.000      0.6597E-01   0.000       0.000       0.000       0.000     -0.1401       0.000       0.000    
   47      0.000       0.000       0.000       0.000       0.000       0.000       0.000       0.000       0.000       0.000    
   48      0.000       0.000       0.000       0.000       0.000       0.000       0.000       0.000       0.000       0.000    
   49      0.000     -0.8517E-01   0.000       0.000       0.000       0.000      0.1809       0.000       0.000      0.1078E-02
   50      0.000       0.000      0.8517E-01   0.000       0.000       0.000       0.000     -0.1809       0.000       0.000    

              21          22          23          24          25          26          27          28          29          30

    1      0.000       0.000       0.000       0.000     -0.1944      0.4725       0.000       0.000       0.000       0.000    
    2      0.000       0.000       0.000       0.000     -0.4146E-01  0.3424       0.000       0.000       0.000       0.000    
    3      0.000       0.000       0.000       0.000       0.000       0.000      0.5452       0.000       0.000       0.000    
    4    -0.6685       0.000       0.000       0.000       0.000       0.000       0.000      0.5452       0.000       0.000    
    5      0.000       0.000       0.000       0.000       0.000       0.000       0.000       0.000      0.5452       0.000    
    6      0.000       0.000       0.000       0.000       0.000       0.000      0.4919       0.000       0.000       0.000    
    7     -2.784       0.000       0.000       0.000       0.000       0.000       0.000      0.4919       0.000       0.000    
    8      0.000       0.000       0.000       0.000       0.000       0.000       0.000       0.000      0.4919       0.000    
    9      0.000       0.000       0.000       0.000       0.000       0.000       0.000       0.000       0.000      0.7276    
   10     -2.213       0.000       0.000       0.000       0.000       0.000       0.000       1.050       0.000       0.000    
   11      0.000       0.000       0.000       0.000       0.000       0.000       1.050       0.000       0.000       0.000    
   12      0.000       0.000       0.000       0.000       0.000       0.000       0.000       0.000       0.000       0.000    
   13      0.000       0.000       0.000       0.000       0.000       0.000       0.000       0.000       1.050       0.000    
   14      0.000       0.000       0.000       0.000       0.000       0.000       0.000       0.000       0.000     -0.9841    
   15    -0.1549       0.000       0.000       0.000       0.000       0.000       0.000     -0.8380       0.000       0.000    
   16      0.000       0.000       0.000       0.000       0.000       0.000     -0.8380       0.000       0.000       0.000    
   17      0.000       0.000       0.000       0.000       0.000       0.000       0.000       0.000       0.000       0.000    
   18      0.000       0.000       0.000       0.000       0.000       0.000       0.000       0.000     -0.8380       0.000    
   19      0.000       0.000       0.000       0.000       0.000       0.000       0.000       0.000     -0.1911       0.000    
   20      0.000       0.000     -0.4560       0.000       0.000       0.000      0.1170       0.000       0.000       0.000    
   21    -0.8353E-03   0.000       0.000      0.4560       0.000       0.000       0.000      0.1170       0.000       0.000    
   22      0.000      0.5768       0.000       0.000       0.000       0.000       0.000       0.000       0.000       0.000    
   23      0.000       0.000       0.000       0.000      0.6478      0.9873       0.000       0.000       0.000       0.000    
   24      0.000       0.000     -0.3532       0.000       0.000       0.000     -0.1511       0.000       0.000       0.000    
   25    -0.1078E-02   0.000       0.000     -0.3532       0.000       0.000       0.000      0.1511       0.000       0.000    
   26      0.000       0.000       0.000       0.000     -0.1944     -0.4725       0.000       0.000       0.000       0.000    
   27      0.000       0.000       0.000       0.000     -0.4146E-01 -0.3424       0.000       0.000       0.000       0.000    
   28      0.000       0.000       0.000       0.000       0.000       0.000      0.5452       0.000       0.000       0.000    
   29    -0.6685       0.000       0.000       0.000       0.000       0.000       0.000      0.5452       0.000       0.000    
   30      0.000       0.000       0.000       0.000       0.000       0.000       0.000       0.000      0.5452       0.000    
   31      0.000       0.000       0.000       0.000       0.000       0.000      0.4919       0.000       0.000       0.000    
   32     -2.784       0.000       0.000       0.000       0.000       0.000       0.000      0.4919       0.000       0.000    
   33      0.000       0.000       0.000       0.000       0.000       0.000       0.000       0.000      0.4919       0.000    
   34      0.000       0.000       0.000       0.000       0.000       0.000       0.000       0.000       0.000     -0.7276    
   35      2.213       0.000       0.000       0.000       0.000       0.000       0.000      -1.050       0.000       0.000    
   36      0.000       0.000       0.000       0.000       0.000       0.000      -1.050       0.000       0.000       0.000    
   37      0.000       0.000       0.000       0.000       0.000       0.000       0.000       0.000       0.000       0.000    
   38      0.000       0.000       0.000       0.000       0.000       0.000       0.000       0.000      -1.050       0.000    
   39      0.000       0.000       0.000       0.000       0.000       0.000       0.000       0.000       0.000      0.9841    
   40     0.1549       0.000       0.000       0.000       0.000       0.000       0.000      0.8380       0.000       0.000    
   41      0.000       0.000       0.000       0.000       0.000       0.000      0.8380       0.000       0.000       0.000    
   42      0.000       0.000       0.000       0.000       0.000       0.000       0.000       0.000       0.000       0.000    
   43      0.000       0.000       0.000       0.000       0.000       0.000       0.000       0.000      0.8380       0.000    
   44      0.000       0.000       0.000       0.000       0.000       0.000       0.000       0.000     -0.1911       0.000    
   45      0.000       0.000     -0.4560       0.000       0.000       0.000      0.1170       0.000       0.000       0.000    
   46    -0.8353E-03   0.000       0.000      0.4560       0.000       0.000       0.000      0.1170       0.000       0.000    
   47      0.000      0.5768       0.000       0.000       0.000       0.000       0.000       0.000       0.000       0.000    
   48      0.000       0.000       0.000       0.000     -0.6478      0.9873       0.000       0.000       0.000       0.000    
   49      0.000       0.000     -0.3532       0.000       0.000       0.000     -0.1511       0.000       0.000       0.000    
   50    -0.1078E-02   0.000       0.000     -0.3532       0.000       0.000       0.000      0.1511       0.000       0.000    

              31          32          33          34          35          36          37          38          39          40

    1      0.000       0.000       0.000       0.000       0.000       0.000       0.000       0.000       0.000       0.000    
    2      0.000       0.000       0.000       0.000       0.000       0.000       0.000       0.000       0.000       0.000    
    3      0.000      0.1964       0.000       0.000      -2.400       0.000       0.000       0.000       0.000       0.000    
    4      0.000       0.000      0.1964       0.000       0.000      -2.400       0.000       0.000       0.000       0.000    
    5      0.000       0.000       0.000      0.1964       0.000       0.000      -2.400       0.000       0.000       0.000    
    6      0.000      -3.130       0.000       0.000       3.766       0.000       0.000       0.000       0.000       0.000    
    7      0.000       0.000      -3.130       0.000       0.000       3.766       0.000       0.000       0.000       0.000    
    8      0.000       0.000       0.000      -3.130       0.000       0.000       3.766       0.000       0.000       0.000    
    9      0.000       0.000       0.000       0.000       0.000       0.000       0.000      -5.128       0.000       0.000    
   10      0.000       0.000      -1.306       0.000       0.000     -0.7605       0.000       0.000       0.000       0.000    
   11      0.000      -1.306       0.000       0.000     -0.7605       0.000       0.000       0.000       0.000       0.000    
   12     0.7276       0.000       0.000       0.000       0.000       0.000       0.000       0.000      -5.128       0.000    
   13      0.000       0.000       0.000      -1.306       0.000       0.000     -0.7605       0.000       0.000       0.000    
   14      0.000       0.000       0.000       0.000       0.000       0.000       0.000       1.138       0.000       0.000    
   15      0.000       0.000     -0.2809       0.000       0.000      0.3558E-01   0.000       0.000       0.000       0.000    
   16      0.000     -0.2809       0.000       0.000      0.3558E-01   0.000       0.000       0.000       0.000       0.000    
   17    -0.9841       0.000       0.000       0.000       0.000       0.000       0.000       0.000       1.138       0.000    
   18      0.000       0.000       0.000     -0.2809       0.000       0.000      0.3558E-01   0.000       0.000       0.000    
   19      0.000       0.000       0.000       1.063       0.000       0.000      0.1215E-01   0.000       0.000       0.000    
   20      0.000     -0.6509       0.000       0.000     -0.7442E-02   0.000       0.000       0.000       0.000     -0.9854    
   21      0.000       0.000     -0.6509       0.000       0.000     -0.7442E-02   0.000       0.000       0.000       0.000    
   22      0.000       0.000       0.000       0.000       0.000       0.000       0.000       0.000       0.000       0.000    
   23      0.000       0.000       0.000       0.000       0.000       0.000       0.000       0.000       0.000       0.000    
   24      0.000      0.8404       0.000       0.000      0.9608E-02   0.000       0.000       0.000       0.000     -0.7633    
   25      0.000       0.000     -0.8404       0.000       0.000     -0.9608E-02   0.000       0.000       0.000       0.000    
   26      0.000       0.000       0.000       0.000       0.000       0.000       0.000       0.000       0.000       0.000    
   27      0.000       0.000       0.000       0.000       0.000       0.000       0.000       0.000       0.000       0.000    
   28      0.000      0.1964       0.000       0.000       2.400       0.000       0.000       0.000       0.000       0.000    
   29      0.000       0.000      0.1964       0.000       0.000       2.400       0.000       0.000       0.000       0.000    
   30      0.000       0.000       0.000      0.1964       0.000       0.000       2.400       0.000       0.000       0.000    
   31      0.000      -3.130       0.000       0.000      -3.766       0.000       0.000       0.000       0.000       0.000    
   32      0.000       0.000      -3.130       0.000       0.000      -3.766       0.000       0.000       0.000       0.000    
   33      0.000       0.000       0.000      -3.130       0.000       0.000      -3.766       0.000       0.000       0.000    
   34      0.000       0.000       0.000       0.000       0.000       0.000       0.000      -5.128       0.000       0.000    
   35      0.000       0.000       1.306       0.000       0.000     -0.7605       0.000       0.000       0.000       0.000    
   36      0.000       1.306       0.000       0.000     -0.7605       0.000       0.000       0.000       0.000       0.000    
   37    -0.7276       0.000       0.000       0.000       0.000       0.000       0.000       0.000      -5.128       0.000    
   38      0.000       0.000       0.000       1.306       0.000       0.000     -0.7605       0.000       0.000       0.000    
   39      0.000       0.000       0.000       0.000       0.000       0.000       0.000       1.138       0.000       0.000    
   40      0.000       0.000      0.2809       0.000       0.000      0.3558E-01   0.000       0.000       0.000       0.000    
   41      0.000      0.2809       0.000       0.000      0.3558E-01   0.000       0.000       0.000       0.000       0.000    
   42     0.9841       0.000       0.000       0.000       0.000       0.000       0.000       0.000       1.138       0.000    
   43      0.000       0.000       0.000      0.2809       0.000       0.000      0.3558E-01   0.000       0.000       0.000    
   44      0.000       0.000       0.000       1.063       0.000       0.000     -0.1215E-01   0.000       0.000       0.000    
   45      0.000     -0.6509       0.000       0.000      0.7442E-02   0.000       0.000       0.000       0.000      0.9854    
   46      0.000       0.000     -0.6509       0.000       0.000      0.7442E-02   0.000       0.000       0.000       0.000    
   47      0.000       0.000       0.000       0.000       0.000       0.000       0.000       0.000       0.000       0.000    
   48      0.000       0.000       0.000       0.000       0.000       0.000       0.000       0.000       0.000       0.000    
   49      0.000      0.8404       0.000       0.000     -0.9608E-02   0.000       0.000       0.000       0.000      0.7633    
   50      0.000       0.000     -0.8404       0.000       0.000      0.9608E-02   0.000       0.000       0.000       0.000    

              41          42          43          44          45          46          47          48          49          50

    1      0.000       0.000       0.000       0.000       0.000     -0.6225       0.000       0.000       0.000       1.280    
    2      0.000       0.000       0.000       0.000       0.000      0.9150       0.000       0.000       0.000     -0.8476    
    3      0.000       0.000     -0.1016       0.000       0.000       0.000       6.186       0.000       0.000       0.000    
    4      0.000       0.000       0.000     -0.1016       0.000       0.000       0.000       6.186       0.000       0.000    
    5      0.000       0.000       0.000       0.000     -0.1016       0.000       0.000       0.000       6.186       0.000    
    6      0.000       0.000      -1.529       0.000       0.000       0.000      -45.22       0.000       0.000       0.000    
    7      0.000       0.000       0.000      -1.529       0.000       0.000       0.000      -45.22       0.000       0.000    
    8      0.000       0.000       0.000       0.000      -1.529       0.000       0.000       0.000      -45.22       0.000    
    9      0.000       0.000       0.000       0.000       0.000       0.000       0.000       0.000       0.000       0.000    
   10      0.000       0.000       0.000       1.704       0.000       0.000       0.000      -24.27       0.000       0.000    
   11      0.000       0.000       1.704       0.000       0.000       0.000      -24.27       0.000       0.000       0.000    
   12      0.000       0.000       0.000       0.000       0.000       0.000       0.000       0.000       0.000       0.000    
   13      0.000       0.000       0.000       0.000       1.704       0.000       0.000       0.000      -24.27       0.000    
   14      0.000       0.000       0.000       0.000       0.000       0.000       0.000       0.000       0.000       0.000    
   15      0.000       0.000       0.000     -0.7277       0.000       0.000       0.000       1.268       0.000       0.000    
   16      0.000       0.000     -0.7277       0.000       0.000       0.000       1.268       0.000       0.000       0.000    
   17      0.000       0.000       0.000       0.000       0.000       0.000       0.000       0.000       0.000       0.000    
   18      0.000       0.000       0.000       0.000     -0.7277       0.000       0.000       0.000       1.268       0.000    
   19      0.000       0.000       0.000       0.000     -0.9342       0.000       0.000       0.000       1.172       0.000    
   20      0.000       0.000      0.5721       0.000       0.000       0.000     -0.7177       0.000       0.000       0.000    
   21     0.9854       0.000       0.000      0.5721       0.000       0.000       0.000     -0.7177       0.000       0.000    
   22      0.000       1.246       0.000       0.000       0.000       0.000       0.000       0.000       0.000       0.000    
   23      0.000       0.000       0.000       0.000       0.000     -0.5236E-01   0.000       0.000       0.000      0.3936    
   24      0.000       0.000     -0.7386       0.000       0.000       0.000      0.9266       0.000       0.000       0.000    
   25    -0.7633       0.000       0.000      0.7386       0.000       0.000       0.000     -0.9266       0.000       0.000    
   26      0.000       0.000       0.000       0.000       0.000     -0.6225       0.000       0.000       0.000      -1.280    
   27      0.000       0.000       0.000       0.000       0.000      0.9150       0.000       0.000       0.000      0.8476    
   28      0.000       0.000      0.1016       0.000       0.000       0.000       6.186       0.000       0.000       0.000    
   29      0.000       0.000       0.000      0.1016       0.000       0.000       0.000       6.186       0.000       0.000    
   30      0.000       0.000       0.000       0.000      0.1016       0.000       0.000       0.000       6.186       0.000    
   31      0.000       0.000       1.529       0.000       0.000       0.000      -45.22       0.000       0.000       0.000    
   32      0.000       0.000       0.000       1.529       0.000       0.000       0.000      -45.22       0.000       0.000    
   33      0.000       0.000       0.000       0.000       1.529       0.000       0.000       0.000      -45.22       0.000    
   34      0.000       0.000       0.000       0.000       0.000       0.000       0.000       0.000       0.000       0.000    
   35      0.000       0.000       0.000       1.704       0.000       0.000       0.000       24.27       0.000       0.000    
   36      0.000       0.000       1.704       0.000       0.000       0.000       24.27       0.000       0.000       0.000    
   37      0.000       0.000       0.000       0.000       0.000       0.000       0.000       0.000       0.000       0.000    
   38      0.000       0.000       0.000       0.000       1.704       0.000       0.000       0.000       24.27       0.000    
   39      0.000       0.000       0.000       0.000       0.000       0.000       0.000       0.000       0.000       0.000    
   40      0.000       0.000       0.000     -0.7277       0.000       0.000       0.000      -1.268       0.000       0.000    
   41      0.000       0.000     -0.7277       0.000       0.000       0.000      -1.268       0.000       0.000       0.000    
   42      0.000       0.000       0.000       0.000       0.000       0.000       0.000       0.000       0.000       0.000    
   43      0.000       0.000       0.000       0.000     -0.7277       0.000       0.000       0.000      -1.268       0.000    
   44      0.000       0.000       0.000       0.000      0.9342       0.000       0.000       0.000       1.172       0.000    
   45      0.000       0.000     -0.5721       0.000       0.000       0.000     -0.7177       0.000       0.000       0.000    
   46    -0.9854       0.000       0.000     -0.5721       0.000       0.000       0.000     -0.7177       0.000       0.000    
   47      0.000      -1.246       0.000       0.000       0.000       0.000       0.000       0.000       0.000       0.000    
   48      0.000       0.000       0.000       0.000       0.000      0.5236E-01   0.000       0.000       0.000      0.3936    
   49      0.000       0.000      0.7386       0.000       0.000       0.000      0.9266       0.000       0.000       0.000    
   50     0.7633       0.000       0.000     -0.7386       0.000       0.000       0.000     -0.9266       0.000       0.000    

   2 (  1  0  0)


               1           1           2           2           3           3           4           4           5           5

    1     0.2190      0.2087E-02  0.4786E-01 -0.1654       0.000       0.000       0.000       0.000     -0.2022     -0.1641    
    2     0.2586E-01  0.3064E-02  0.2015E-01 -0.6908E-01   0.000       0.000       0.000       0.000     -0.1036     -0.8675E-01
    3     0.1322E-01  0.6427E-01  0.1265     -0.5731E-03  0.1939     -0.1085E-02  0.1119     -0.6262E-03  0.1033      0.3001E-02
    4    -0.1322E-01 -0.6427E-01 -0.1265      0.5731E-03  0.1939     -0.1085E-02 -0.1119      0.6262E-03 -0.1033     -0.3001E-02
    5    -0.1322E-01 -0.6427E-01 -0.1265      0.5731E-03   0.000       0.000      0.2239     -0.1252E-02 -0.1033     -0.3001E-02
    6    -0.1292     -0.5454      0.1650      0.1717E-02  0.2191     -0.8299E-01  0.1265     -0.4791E-01  0.1806      0.2131E-01
    7     0.1292      0.5454     -0.1650     -0.1717E-02  0.2191     -0.8299E-01 -0.1265      0.4791E-01 -0.1806     -0.2131E-01
    8     0.1292      0.5454     -0.1650     -0.1717E-02   0.000       0.000      0.2530     -0.9582E-01 -0.1806     -0.2131E-01
    9      0.000       0.000       0.000       0.000       0.000       0.000     -0.1026E-01 -0.1096E-01   0.000       0.000    
   10     0.3116E-01  0.2811     -0.4467E-01 -0.5786E-01  0.5150E-01 -0.8892E-01 -0.2973E-01  0.5134E-01  0.8854E-01  0.7134E-01
   11    -0.3116E-01 -0.2811      0.4467E-01  0.5786E-01  0.5150E-01 -0.8892E-01  0.2973E-01 -0.5134E-01 -0.8854E-01 -0.7134E-01
   12      0.000       0.000       0.000       0.000      0.1026E-01  0.1096E-01   0.000       0.000       0.000       0.000    
   13     0.3116E-01  0.2811     -0.4467E-01 -0.5786E-01   0.000       0.000      0.5947E-01 -0.1027      0.8854E-01  0.7134E-01
   14      0.000       0.000       0.000       0.000       0.000       0.000     -0.6273E-02 -0.5627E-02   0.000       0.000    
   15     0.3972E-02 -0.1207E-01 -0.2619E-01 -0.1996E-01  0.4541E-01 -0.2136E-01 -0.2622E-01  0.1233E-01  0.3563E-01  0.2640E-01
   16    -0.3972E-02  0.1207E-01  0.2619E-01  0.1996E-01  0.4541E-01 -0.2136E-01  0.2622E-01 -0.1233E-01 -0.3563E-01 -0.2640E-01
   17      0.000       0.000       0.000       0.000      0.6273E-02  0.5627E-02   0.000       0.000       0.000       0.000    
   18     0.3972E-02 -0.1207E-01 -0.2619E-01 -0.1996E-01   0.000       0.000      0.5244E-01 -0.2466E-01  0.3563E-01  0.2640E-01
   19    -0.8011E-02 -0.1663E-01  0.4209E-02  0.6116E-02   0.000       0.000     -0.3706E-02  0.8560E-02 -0.9256E-02 -0.1144E-01
   20    -0.4906E-02 -0.1018E-01  0.2577E-02  0.3745E-02  0.3583E-02 -0.3276E-02 -0.1667E-02 -0.4810E-02 -0.5668E-02 -0.7006E-02
   21     0.4906E-02  0.1018E-01 -0.2577E-02 -0.3745E-02  0.3583E-02 -0.3276E-02  0.1667E-02  0.4810E-02  0.5668E-02  0.7006E-02
   22      0.000       0.000       0.000       0.000     -0.4092E-02 -0.3197E-02   0.000       0.000       0.000       0.000    
   23    -0.4041E-02 -0.7420E-03 -0.1677E-01  0.2773E-01   0.000       0.000       0.000       0.000      0.6146E-01  0.4395E-02
   24     0.6333E-02  0.1314E-01 -0.3327E-02 -0.4835E-02 -0.1285E-02  0.6840E-02 -0.3635E-02  0.1688E-02  0.7317E-02  0.9045E-02
   25     0.6333E-02  0.1314E-01 -0.3327E-02 -0.4835E-02  0.1285E-02 -0.6840E-02 -0.3635E-02  0.1688E-02  0.7317E-02  0.9045E-02
   26     0.1797     -0.1252     -0.1276E-02  0.1722       0.000       0.000       0.000       0.000      0.2109     -0.1528    
   27     0.1963E-01 -0.1711E-01 -0.3837E-03  0.7195E-01   0.000       0.000       0.000       0.000      0.1082     -0.8095E-01
   28     0.2532E-01  0.6053E-01 -0.1210     -0.3661E-01 -0.6604E-01  0.1823     -0.3813E-01  0.1052      0.1033      0.2657E-02
   29    -0.2532E-01 -0.6053E-01  0.1210      0.3661E-01 -0.6604E-01  0.1823      0.3813E-01 -0.1052     -0.1033     -0.2657E-02
   30    -0.2532E-01 -0.6053E-01  0.1210      0.3661E-01   0.000       0.000     -0.7625E-01  0.2105     -0.1033     -0.2657E-02
   31    -0.2009     -0.5232     -0.1587     -0.4541E-01 -0.1516      0.1786     -0.8755E-01  0.1031      0.1815     -0.1140E-01
   32     0.2009      0.5232      0.1587      0.4541E-01 -0.1516      0.1786      0.8755E-01 -0.1031     -0.1815      0.1140E-01
   33     0.2009      0.5232      0.1587      0.4541E-01   0.000       0.000     -0.1751      0.2062     -0.1815      0.1140E-01
   34      0.000       0.000       0.000       0.000       0.000       0.000      0.6885E-02  0.1334E-01   0.000       0.000    
   35    -0.1328     -0.2497     -0.5931E-01  0.4273E-01  0.1010     -0.1870E-01 -0.5834E-01  0.1080E-01 -0.9231E-01  0.6639E-01
   36     0.1328      0.2497      0.5931E-01 -0.4273E-01  0.1010     -0.1870E-01  0.5834E-01 -0.1080E-01  0.9231E-01 -0.6639E-01
   37      0.000       0.000       0.000       0.000     -0.6885E-02 -0.1334E-01   0.000       0.000       0.000       0.000    
   38    -0.1328     -0.2497     -0.5931E-01  0.4273E-01   0.000       0.000      0.1167     -0.2159E-01 -0.9231E-01  0.6639E-01
   39      0.000       0.000       0.000       0.000       0.000       0.000      0.3198E-02  0.7797E-02   0.000       0.000    
   40     0.1009E-01  0.7730E-02 -0.3079E-01  0.1167E-01  0.3535E-01 -0.3562E-01 -0.2041E-01  0.2057E-01 -0.3702E-01  0.2441E-01
   41    -0.1009E-01 -0.7730E-02  0.3079E-01 -0.1167E-01  0.3535E-01 -0.3562E-01  0.2041E-01 -0.2057E-01  0.3702E-01 -0.2441E-01
   42      0.000       0.000       0.000       0.000     -0.3198E-02 -0.7797E-02   0.000       0.000       0.000       0.000    
   43     0.1009E-01  0.7730E-02 -0.3079E-01  0.1167E-01   0.000       0.000      0.4081E-01 -0.4113E-01 -0.3702E-01  0.2441E-01
   44    -0.2759E-02 -0.1825E-01 -0.5778E-02  0.4662E-02   0.000       0.000      0.9307E-02 -0.6215E-03 -0.9868E-02  0.1092E-01
   45    -0.1689E-02 -0.1117E-01 -0.3538E-02  0.2855E-02 -0.4288E-02  0.2277E-02 -0.3973E-02 -0.3183E-02 -0.6043E-02  0.6686E-02
   46     0.1689E-02  0.1117E-01  0.3538E-02 -0.2855E-02 -0.4288E-02  0.2277E-02  0.3973E-02  0.3183E-02  0.6043E-02 -0.6686E-02
   47      0.000       0.000       0.000       0.000     -0.1640E-02 -0.4927E-02   0.000       0.000       0.000       0.000    
   48     0.2919E-02 -0.2891E-02  0.8165E-02  0.3136E-01   0.000       0.000       0.000       0.000      0.6161E-01 -0.1025E-02
   49     0.2181E-02  0.1443E-01  0.4568E-02 -0.3686E-02  0.6874E-02  0.1083E-02  0.2809E-02 -0.2859E-02  0.7801E-02 -0.8631E-02
   50     0.2181E-02  0.1443E-01  0.4568E-02 -0.3686E-02 -0.6874E-02 -0.1083E-02  0.2809E-02 -0.2859E-02  0.7801E-02 -0.8631E-02

               6           6           7           7           8           8           9           9          10          10

    1      0.000       0.000       0.000       0.000     -0.3888     -0.1150       0.000       0.000       0.000       0.000    
    2      0.000       0.000       0.000       0.000     -0.2248     -0.6495E-01   0.000       0.000       0.000       0.000    
    3     0.4846E-01  0.1755      0.2798E-01  0.1013     -0.7208E-01  0.1031      0.7141E-02 -0.2257E-01  0.4123E-02 -0.1303E-01
    4     0.4846E-01  0.1755     -0.2798E-01 -0.1013      0.7208E-01 -0.1031      0.7141E-02 -0.2257E-01 -0.4123E-02  0.1303E-01
    5      0.000       0.000      0.5595E-01  0.2026      0.7208E-01 -0.1031       0.000       0.000      0.8246E-02 -0.2607E-01
    6     0.6373E-01  0.2038      0.3679E-01  0.1177     -0.1580      0.9989E-01  0.1421     -0.6118E-01  0.8204E-01 -0.3532E-01
    7     0.6373E-01  0.2038     -0.3679E-01 -0.1177      0.1580     -0.9989E-01  0.1421     -0.6118E-01 -0.8204E-01  0.3532E-01
    8      0.000       0.000      0.7359E-01  0.2353      0.1580     -0.9989E-01   0.000       0.000      0.1641     -0.7065E-01
    9      0.000       0.000     -0.1151E-01  0.4398E-01   0.000       0.000       0.000       0.000     -0.3818      0.6208E-04
   10    -0.1169     -0.1229      0.6752E-01  0.7097E-01 -0.4421E-01 -0.5617E-02  0.5426E-01  0.1541     -0.3133E-01 -0.8896E-01
   11    -0.1169     -0.1229     -0.6752E-01 -0.7097E-01  0.4421E-01  0.5617E-02  0.5426E-01  0.1541      0.3133E-01  0.8896E-01
   12     0.1151E-01 -0.4398E-01   0.000       0.000       0.000       0.000      0.3818     -0.6208E-04   0.000       0.000    
   13      0.000       0.000     -0.1350     -0.1419     -0.4421E-01 -0.5617E-02   0.000       0.000      0.6265E-01  0.1779    
   14      0.000       0.000     -0.1285E-02  0.1904E-01   0.000       0.000       0.000       0.000     -0.1735      0.1915E-02
   15    -0.5119E-01 -0.3539E-01  0.2956E-01  0.2043E-01 -0.1086E-01 -0.3623E-01 -0.9251E-02  0.2344E-01  0.5341E-02 -0.1353E-01
   16    -0.5119E-01 -0.3539E-01 -0.2956E-01 -0.2043E-01  0.1086E-01  0.3623E-01 -0.9251E-02  0.2344E-01 -0.5341E-02  0.1353E-01
   17     0.1285E-02 -0.1904E-01   0.000       0.000       0.000       0.000      0.1735     -0.1915E-02   0.000       0.000    
   18      0.000       0.000     -0.5911E-01 -0.4086E-01 -0.1086E-01 -0.3623E-01   0.000       0.000     -0.1068E-01  0.2706E-01
   19      0.000       0.000      0.1713E-01  0.1675E-01  0.7485E-02 -0.4214E-02   0.000       0.000     -0.6757E-03  0.1727E-01
   20    -0.7600E-02 -0.1100E-01 -0.7822E-02 -0.1466E-02  0.4584E-02 -0.2581E-02 -0.2137E-02 -0.1351E-01  0.4530E-02  0.2242E-02
   21    -0.7600E-02 -0.1100E-01  0.7822E-02  0.1466E-02 -0.4584E-02  0.2581E-02 -0.2137E-02 -0.1351E-01 -0.4530E-02 -0.2242E-02
   22    -0.3762E-02  0.5350E-02   0.000       0.000       0.000       0.000      0.6314E-02  0.1100E-01   0.000       0.000    
   23      0.000       0.000       0.000       0.000      0.1100      0.5885E-01   0.000       0.000       0.000       0.000    
   24     0.1288E-01  0.9831E-02  0.4778E-02  0.9459E-02 -0.5917E-02  0.3332E-02 -0.2396E-02  0.8458E-02  0.3081E-02  0.1266E-01
   25    -0.1288E-01 -0.9831E-02  0.4778E-02  0.9459E-02 -0.5917E-02  0.3332E-02  0.2396E-02 -0.8458E-02  0.3081E-02  0.1266E-01
   26      0.000       0.000       0.000       0.000      0.4049     -0.2155E-01   0.000       0.000       0.000       0.000    
   27      0.000       0.000       0.000       0.000      0.2338     -0.1093E-01   0.000       0.000       0.000       0.000    
   28     0.1817     -0.1185E-01  0.1049     -0.6844E-02 -0.4614E-01 -0.1171      0.1841E-01  0.1489E-01  0.1063E-01  0.8598E-02
   29     0.1817     -0.1185E-01 -0.1049      0.6844E-02  0.4614E-01  0.1171      0.1841E-01  0.1489E-01 -0.1063E-01 -0.8598E-02
   30      0.000       0.000      0.2098     -0.1369E-01  0.4614E-01  0.1171       0.000       0.000      0.2125E-01  0.1720E-01
   31     0.2134     -0.6722E-02  0.1232     -0.3881E-02 -0.1305     -0.1339      0.1523     -0.2733E-01  0.8792E-01 -0.1578E-01
   32     0.2134     -0.6722E-02 -0.1232      0.3881E-02  0.1305      0.1339      0.1523     -0.2733E-01 -0.8792E-01  0.1578E-01
   33      0.000       0.000      0.2464     -0.7762E-02  0.1305      0.1339       0.000       0.000      0.1758     -0.3156E-01
   34      0.000       0.000     -0.3777E-01  0.2531E-01   0.000       0.000       0.000       0.000      0.3185     -0.2105    
   35     0.1545      0.7009E-01 -0.8921E-01 -0.4047E-01  0.4430E-01  0.4809E-02  0.3972E-01  0.1585     -0.2293E-01 -0.9149E-01
   36     0.1545      0.7009E-01  0.8921E-01  0.4047E-01 -0.4430E-01 -0.4809E-02  0.3972E-01  0.1585      0.2293E-01  0.9149E-01
   37     0.3777E-01 -0.2531E-01   0.000       0.000       0.000       0.000     -0.3185      0.2105       0.000       0.000    
   38      0.000       0.000      0.1784      0.8093E-01  0.4430E-01  0.4809E-02   0.000       0.000      0.4586E-01  0.1830    
   39      0.000       0.000     -0.1756E-01  0.7465E-02   0.000       0.000       0.000       0.000      0.1458     -0.9408E-01
   40     0.5024E-01  0.3673E-01 -0.2900E-01 -0.2121E-01  0.1899E-01 -0.3272E-01  0.2064E-01  0.1445E-01 -0.1192E-01 -0.8343E-02
   41     0.5024E-01  0.3673E-01  0.2900E-01  0.2121E-01 -0.1899E-01  0.3272E-01  0.2064E-01  0.1445E-01  0.1192E-01  0.8343E-02
   42     0.1756E-01 -0.7465E-02   0.000       0.000       0.000       0.000     -0.1458      0.9408E-01   0.000       0.000    
   43      0.000       0.000      0.5801E-01  0.4242E-01  0.1899E-01 -0.3272E-01   0.000       0.000      0.2384E-01  0.1669E-01
   44      0.000       0.000      0.2145E-01  0.1068E-01  0.6301E-02  0.5838E-02   0.000       0.000     -0.1009E-01 -0.1404E-01
   45    -0.1288E-01 -0.3567E-02 -0.3954E-02 -0.6907E-02  0.3858E-02  0.3575E-02  0.5667E-02  0.1245E-01  0.2542E-02 -0.4369E-02
   46    -0.1288E-01 -0.3567E-02  0.3954E-02  0.6907E-02 -0.3858E-02 -0.3575E-02  0.5667E-02  0.1245E-01 -0.2542E-02  0.4369E-02
   47     0.3818E-02 -0.5311E-02   0.000       0.000       0.000       0.000     -0.7991E-03 -0.1266E-01   0.000       0.000    
   48      0.000       0.000       0.000       0.000      0.1207     -0.3167E-01   0.000       0.000       0.000       0.000    
   49     0.1352E-01  0.8941E-02  0.1050E-01  0.1407E-02 -0.4981E-02 -0.4616E-02 -0.6663E-02 -0.5734E-02 -0.4412E-02 -0.1226E-01
   50    -0.1352E-01 -0.8941E-02  0.1050E-01  0.1407E-02 -0.4981E-02 -0.4616E-02  0.6663E-02  0.5734E-02 -0.4412E-02 -0.1226E-01

              11          11          12          12          13          13          14          14          15          15

    1    -0.2323     -0.5780E-01  0.3536     -0.3701       0.000       0.000       0.000       0.000       0.000       0.000    
    2    -0.1925     -0.4168E-01  0.3025     -0.3143       0.000       0.000       0.000       0.000       0.000       0.000    
    3     0.1084      0.4397E-01 -0.2277     -0.2546     -0.1655      0.3969E-01 -0.9558E-01  0.2291E-01 -0.4613E-01  0.2011    
    4    -0.1084     -0.4397E-01  0.2277      0.2546     -0.1655      0.3969E-01  0.9558E-01 -0.2291E-01 -0.4613E-01  0.2011    
    5    -0.1084     -0.4397E-01  0.2277      0.2546       0.000       0.000     -0.1912      0.4582E-01   0.000       0.000    
    6     0.1312     -0.4498       1.092      0.6840     -0.3566     -0.4215     -0.2059     -0.2434     -0.6952      0.7330    
    7    -0.1312      0.4498      -1.092     -0.6840     -0.3566     -0.4215      0.2059      0.2434     -0.6952      0.7330    
    8    -0.1312      0.4498      -1.092     -0.6840       0.000       0.000     -0.4117     -0.4868       0.000       0.000    
    9      0.000       0.000       0.000       0.000       0.000       0.000      0.2438E-03 -0.2344       0.000       0.000    
   10     0.4948      0.1374     -0.3111     -0.5230      0.5339     -0.2919     -0.3083      0.1685     -0.4098      0.4679    
   11    -0.4948     -0.1374      0.3111      0.5230      0.5339     -0.2919      0.3083     -0.1685     -0.4098      0.4679    
   12      0.000       0.000       0.000       0.000     -0.2438E-03  0.2344       0.000       0.000     -0.8976     -0.5348    
   13     0.4948      0.1374     -0.3111     -0.5230       0.000       0.000      0.6165     -0.3370       0.000       0.000    
   14      0.000       0.000       0.000       0.000       0.000       0.000      0.1357E-02 -0.1038       0.000       0.000    
   15     0.1409E-01 -0.9498E-02  0.1254E-01 -0.7849E-02  0.3450E-01  0.1125E-01 -0.1992E-01 -0.6496E-02  0.1631      0.1261    
   16    -0.1409E-01  0.9498E-02 -0.1254E-01  0.7849E-02  0.3450E-01  0.1125E-01  0.1992E-01  0.6496E-02  0.1631      0.1261    
   17      0.000       0.000       0.000       0.000     -0.1357E-02  0.1038       0.000       0.000     -0.1783     -0.1233    
   18     0.1409E-01 -0.9498E-02  0.1254E-01 -0.7849E-02   0.000       0.000      0.3984E-01  0.1299E-01   0.000       0.000    
   19     0.4041E-01 -0.2203E-01  0.6501E-01  0.1804E-01   0.000       0.000      0.8667E-01  0.8178E-02   0.000       0.000    
   20     0.2474E-01 -0.1349E-01  0.3981E-01  0.1105E-01 -0.4302E-01  0.8226E-03 -0.3163E-01 -0.1144E-01  0.6140E-01 -0.2603E-01
   21    -0.2474E-01  0.1349E-01 -0.3981E-01 -0.1105E-01 -0.4302E-01  0.8226E-03  0.3163E-01  0.1144E-01  0.6140E-01 -0.2603E-01
   22      0.000       0.000       0.000       0.000     -0.7447E-02 -0.1305E-01   0.000       0.000     -0.6409E-01  0.1190    
   23    -0.8031E-01 -0.6744E-02  0.1517     -0.1387       0.000       0.000       0.000       0.000       0.000       0.000    
   24    -0.3194E-01  0.1742E-01 -0.5140E-01 -0.1427E-01  0.6162E-01  0.9596E-02  0.3031E-01 -0.3690E-02 -0.2695E-01 -0.6353E-01
   25    -0.3194E-01  0.1742E-01 -0.5140E-01 -0.1427E-01 -0.6162E-01 -0.9596E-02  0.3031E-01 -0.3690E-02  0.2695E-01  0.6353E-01
   26    -0.5674E-01  0.2325      0.1972     -0.4723       0.000       0.000       0.000       0.000       0.000       0.000    
   27    -0.5252E-01  0.1898      0.1667     -0.4031       0.000       0.000       0.000       0.000       0.000       0.000    
   28    -0.1141E-01  0.1164     -0.3246     -0.1065      0.1546     -0.7136E-01  0.8924E-01 -0.4120E-01 -0.5578E-01  0.1986    
   29     0.1141E-01 -0.1164      0.3246      0.1065      0.1546     -0.7136E-01 -0.8924E-01  0.4120E-01 -0.5578E-01  0.1986    
   30     0.1141E-01 -0.1164      0.3246      0.1065       0.000       0.000      0.1785     -0.8240E-01   0.000       0.000    
   31    -0.4592     -0.9284E-01   1.064      0.7261      0.1892E-01 -0.5518      0.1092E-01 -0.3186      0.2594      0.9763    
   32     0.4592      0.9284E-01  -1.064     -0.7261      0.1892E-01 -0.5518     -0.1092E-01  0.3186      0.2594      0.9763    
   33     0.4592      0.9284E-01  -1.064     -0.7261       0.000       0.000      0.2185E-01 -0.6372       0.000       0.000    
   34      0.000       0.000       0.000       0.000       0.000       0.000      0.1454      0.1839       0.000       0.000    
   35     0.1083     -0.5020      0.6038      0.7536E-01  0.6000     -0.1015     -0.3464      0.5858E-01 -0.1357     -0.6069    
   36    -0.1083      0.5020     -0.6038     -0.7536E-01  0.6000     -0.1015      0.3464     -0.5858E-01 -0.1357     -0.6069    
   37      0.000       0.000       0.000       0.000     -0.1454     -0.1839       0.000       0.000      -1.044      0.3980E-01
   38     0.1083     -0.5020      0.6038      0.7536E-01   0.000       0.000      0.6928     -0.1172       0.000       0.000    
   39      0.000       0.000       0.000       0.000       0.000       0.000      0.6535E-01  0.8067E-01   0.000       0.000    
   40     0.1496E-01 -0.8065E-02  0.2164E-02 -0.1463E-01  0.2012E-01 -0.3020E-01 -0.1162E-01  0.1744E-01  0.2036     -0.3263E-01
   41    -0.1496E-01  0.8065E-02 -0.2164E-02  0.1463E-01  0.2012E-01 -0.3020E-01  0.1162E-01 -0.1744E-01  0.2036     -0.3263E-01
   42      0.000       0.000       0.000       0.000     -0.6535E-01 -0.8067E-01   0.000       0.000     -0.2156      0.2283E-01
   43     0.1496E-01 -0.8065E-02  0.2164E-02 -0.1463E-01   0.000       0.000      0.2324E-01 -0.3487E-01   0.000       0.000    
   44    -0.3829E-01  0.2554E-01  0.4260E-01  0.5232E-01   0.000       0.000     -0.6298E-01  0.6009E-01   0.000       0.000    
   45    -0.2345E-01  0.1564E-01  0.2608E-01  0.3204E-01  0.3429E-01 -0.2599E-01  0.1775E-01 -0.2857E-01 -0.4145E-01 -0.5225E-01
   46     0.2345E-01 -0.1564E-01 -0.2608E-01 -0.3204E-01  0.3429E-01 -0.2599E-01 -0.1775E-01  0.2857E-01 -0.4145E-01 -0.5225E-01
   47      0.000       0.000       0.000       0.000     -0.2237E-02 -0.1486E-01   0.000       0.000     -0.6936E-03  0.1351    
   48     0.3134E-01 -0.7424E-01 -0.6622E-01  0.1945       0.000       0.000       0.000       0.000       0.000       0.000    
   49     0.3027E-01 -0.2019E-01 -0.3368E-01 -0.4137E-01 -0.4244E-01  0.4569E-01 -0.2608E-01  0.1587E-01  0.5407E-01 -0.4288E-01
   50     0.3027E-01 -0.2019E-01 -0.3368E-01 -0.4137E-01  0.4244E-01 -0.4569E-01 -0.2608E-01  0.1587E-01 -0.5407E-01  0.4288E-01

              16          16          17          17          18          18          19          19          20          20

    1      0.000       0.000     -0.4027E-01  0.1871       0.000       0.000       0.000       0.000       0.000       0.000    
    2      0.000       0.000     -0.2674E-01  0.1699       0.000       0.000       0.000       0.000       0.000       0.000    
    3    -0.2663E-01  0.1161     -0.3963      0.7254E-01 -0.4410E-01  0.3650E-01 -0.7639E-01  0.6323E-01  0.2920     -0.2860    
    4     0.2663E-01 -0.1161      0.3963     -0.7254E-01  0.4410E-01 -0.3650E-01 -0.7639E-01  0.6323E-01  0.2920     -0.2860    
[...]

              36          36          37          37          38          38          39          39          40          40

    1      0.000       0.000       0.000       0.000       0.000       0.000     -0.2812       0.000       0.000       0.000    
    2      0.000       0.000       0.000       0.000       0.000       0.000     -0.3948       0.000       0.000       0.000    
    3      0.000       0.000       0.000       0.000      0.1853     -0.1853       0.000       0.000     -0.7507     -0.7507    
    4    -0.3735       0.000       1.494       0.000       0.000       0.000       0.000       0.000       0.000       0.000    
    5      0.000       0.000       0.000       0.000      0.1853      0.1853       0.000       0.000     -0.7507      0.7507    
    6      0.000       0.000       0.000       0.000      0.2044     -0.2044       0.000       0.000      0.9195      0.9195    
    7     0.6932       0.000      -2.724       0.000       0.000       0.000       0.000       0.000       0.000       0.000    
    8      0.000       0.000       0.000       0.000      0.2044      0.2044       0.000       0.000      0.9195     -0.9195    
    9      0.000       3.150       0.000      0.6327       0.000       0.000      0.6460       0.000       0.000       0.000    
   10    -0.2199       0.000     -0.7423       0.000       0.000       0.000       0.000       0.000       0.000       0.000    
   11      0.000       0.000       0.000       0.000     -0.1174      0.1174       0.000       0.000     -0.9288E-02 -0.9288E-02
   12      0.000      -1.818       0.000     -0.3653       0.000       0.000       1.119       0.000       0.000       0.000    
   13      0.000       0.000       0.000       0.000     -0.1174     -0.1174       0.000       0.000     -0.9288E-02  0.9288E-02
   14      0.000      -1.091       0.000     -0.2834       0.000       0.000     -0.1728       0.000       0.000       0.000    
   15    -0.3715       0.000      0.7811       0.000       0.000       0.000       0.000       0.000       0.000       0.000    
   16      0.000       0.000       0.000       0.000      0.1749     -0.1749       0.000       0.000     -0.4210     -0.4210    
   17      0.000      0.6301       0.000      0.1636       0.000       0.000     -0.2994       0.000       0.000       0.000    
   18      0.000       0.000       0.000       0.000      0.1749      0.1749       0.000       0.000     -0.4210      0.4210    
   19      0.000       0.000       0.000       0.000      0.2416      0.2416       0.000       0.000      0.1730     -0.1730    
   20      0.000       0.000       0.000       0.000      0.2720     -0.2720       0.000       0.000      0.9800E-01  0.9800E-01
   21    -0.4231       0.000      0.2431       0.000       0.000       0.000       0.000      0.2258       0.000       0.000    
   22      0.000       0.000       0.000       0.000      0.5312      0.5312       0.000       0.000      0.2580     -0.2580    
   23      0.000       0.000       0.000       0.000       0.000       0.000       1.119       0.000       0.000       0.000    
   24      0.000       0.000       0.000       0.000      0.5163     -0.5163       0.000       0.000      0.2947      0.2947    
   25    -0.5463       0.000      0.3139       0.000       0.000       0.000       0.000     -0.1749       0.000       0.000    
   26      0.000       0.000       0.000       0.000       0.000       0.000       0.000       0.000       0.000     -0.2812    
   27      0.000       0.000       0.000       0.000       0.000       0.000       0.000       0.000       0.000     -0.3948    
   28     0.3893     -0.3893      0.1853     -0.1853       0.000       0.000      0.7507      0.7507       0.000       0.000    
   29      0.000       0.000       0.000       0.000       0.000      -1.494       0.000       0.000       0.000       0.000    
   30    -0.3893     -0.3893     -0.1853     -0.1853       0.000       0.000     -0.7507      0.7507       0.000       0.000    
   31     -1.392       1.392      0.2044     -0.2044       0.000       0.000     -0.9195     -0.9195       0.000       0.000    
   32      0.000       0.000       0.000       0.000       0.000       2.724       0.000       0.000       0.000       0.000    
   33      1.392       1.392     -0.2044     -0.2044       0.000       0.000      0.9195     -0.9195       0.000       0.000    
   34      0.000       0.000       0.000       0.000      0.6327       0.000       0.000       0.000       0.000      0.6460    
   35      0.000       0.000       0.000       0.000       0.000     -0.7423       0.000       0.000       0.000       0.000    
   36     -1.010       1.010      0.1174     -0.1174       0.000       0.000     -0.9288E-02 -0.9288E-02   0.000       0.000    
   37      0.000       0.000       0.000       0.000     -0.3653       0.000       0.000       0.000       0.000       1.119    
   38      1.010       1.010     -0.1174     -0.1174       0.000       0.000      0.9288E-02 -0.9288E-02   0.000       0.000    
   39      0.000       0.000       0.000       0.000     -0.2834       0.000       0.000       0.000       0.000     -0.1728    
   40      0.000       0.000       0.000       0.000       0.000      0.7811       0.000       0.000       0.000       0.000    
   41    -0.7539E-01  0.7539E-01 -0.1749      0.1749       0.000       0.000     -0.4210     -0.4210       0.000       0.000    
   42      0.000       0.000       0.000       0.000      0.1636       0.000       0.000       0.000       0.000     -0.2994    
   43     0.7539E-01  0.7539E-01  0.1749      0.1749       0.000       0.000      0.4210     -0.4210       0.000       0.000    
   44     0.2078      0.2078     -0.2416     -0.2416       0.000       0.000      0.1730     -0.1730       0.000       0.000    
   45     0.2403     -0.2403      0.2720     -0.2720       0.000       0.000     -0.9800E-01 -0.9800E-01   0.000       0.000    
   46      0.000       0.000       0.000       0.000       0.000     -0.2431       0.000       0.000     -0.2258       0.000    
   47    -0.1430     -0.1430     -0.5312     -0.5312       0.000       0.000      0.2580     -0.2580       0.000       0.000    
   48      0.000       0.000       0.000       0.000       0.000       0.000       0.000       0.000       0.000      -1.119    
   49    -0.7671E-01  0.7671E-01  0.5163     -0.5163       0.000       0.000     -0.2947     -0.2947       0.000       0.000    
   50      0.000       0.000       0.000       0.000       0.000     -0.3139       0.000       0.000      0.1749       0.000    

              41          41          42          42          43          43          44          44          45          45

    1     0.3781      0.3781       0.000       0.000      0.2746      0.2746       0.000       0.000       0.000       0.000    
    2     0.4663      0.4663       0.000       0.000      0.4018      0.4018       0.000       0.000       0.000       0.000    
    3      0.000       0.000       0.000     -0.2979       0.000       0.000       0.000     -0.5147       0.000       0.000    
    4      0.000       0.000       0.000       0.000       0.000       0.000       0.000       0.000      -1.480       0.000    
    5      0.000       0.000     -0.2979       0.000       0.000       0.000     -0.5147       0.000       0.000       0.000    
    6      0.000       0.000       0.000      0.6287       0.000       0.000       0.000       1.660       0.000       0.000    
    7      0.000       0.000       0.000       0.000       0.000       0.000       0.000       0.000       5.484       0.000    
    8      0.000       0.000      0.6287       0.000       0.000       0.000       1.660       0.000       0.000       0.000    
    9     0.1007      0.1007       0.000       0.000       1.326       1.326       0.000       0.000       0.000       1.528    
   10      0.000       0.000       0.000       0.000       0.000       0.000       0.000       0.000       4.444       0.000    
   11      0.000       0.000       0.000      -1.132       0.000       0.000       0.000      -1.905       0.000       0.000    
   12     0.1744      0.1744       0.000       0.000       2.297       2.297       0.000       0.000       0.000     -0.8819    
   13      0.000       0.000      -1.132       0.000       0.000       0.000      -1.905       0.000       0.000       0.000    
   14     0.1112E-01  0.1112E-01   0.000       0.000     -0.3108     -0.3108       0.000       0.000       0.000     -0.2787    
   15      0.000       0.000       0.000       0.000       0.000       0.000       0.000       0.000      -1.112       0.000    
   16      0.000       0.000       0.000      0.3418       0.000       0.000       0.000      0.7041       0.000       0.000    
   17     0.1927E-01  0.1927E-01   0.000       0.000     -0.5383     -0.5383       0.000       0.000       0.000      0.1609    
   18      0.000       0.000      0.3418       0.000       0.000       0.000      0.7041       0.000       0.000       0.000    
   19      0.000       0.000      0.7113       0.000       0.000       0.000      0.6218E-01   0.000       0.000       0.000    
   20      0.000       0.000       0.000     -0.7251       0.000       0.000       0.000      0.7852       0.000       0.000    
   21    -0.6660      0.6660       0.000       0.000      0.1714E-01 -0.1714E-01   0.000       0.000      0.7182       0.000    
   22      0.000       0.000     -0.3662       0.000       0.000       0.000       1.041       0.000       0.000       0.000    
   23     0.1474      0.1474       0.000       0.000     -0.1615     -0.1615       0.000       0.000       0.000       0.000    
   24      0.000       0.000       0.000      0.3381       0.000       0.000       0.000      0.6869       0.000       0.000    
   25     0.5159     -0.5159       0.000       0.000     -0.1328E-01  0.1328E-01   0.000       0.000      0.9271       0.000    
   26      0.000       0.000     -0.3781      0.3781       0.000       0.000     -0.2746      0.2746       0.000       0.000    
   27      0.000       0.000     -0.4663      0.4663       0.000       0.000     -0.4018      0.4018       0.000       0.000    
   28      0.000      0.2979       0.000       0.000       0.000      0.5147       0.000       0.000     -0.2517      0.2517    
   29      0.000       0.000       0.000       0.000       0.000       0.000       0.000       0.000       0.000       0.000    
   30    -0.2979       0.000       0.000       0.000     -0.5147       0.000       0.000       0.000      0.2517      0.2517    
   31      0.000     -0.6287       0.000       0.000       0.000      -1.660       0.000       0.000      -2.549       2.549    
   32      0.000       0.000       0.000       0.000       0.000       0.000       0.000       0.000       0.000       0.000    
   33     0.6287       0.000       0.000       0.000       1.660       0.000       0.000       0.000       2.549       2.549    
   34      0.000       0.000     -0.1007      0.1007       0.000       0.000      -1.326       1.326       0.000       0.000    
   35      0.000       0.000       0.000       0.000       0.000       0.000       0.000       0.000       0.000       0.000    
   36      0.000      -1.132       0.000       0.000       0.000      -1.905       0.000       0.000      0.2921     -0.2921    
   37      0.000       0.000     -0.1744      0.1744       0.000       0.000      -2.297       2.297       0.000       0.000    
   38      1.132       0.000       0.000       0.000       1.905       0.000       0.000       0.000     -0.2921     -0.2921    
   39      0.000       0.000     -0.1112E-01  0.1112E-01   0.000       0.000      0.3108     -0.3108       0.000       0.000    
   40      0.000       0.000       0.000       0.000       0.000       0.000       0.000       0.000       0.000       0.000    
   41      0.000      0.3418       0.000       0.000       0.000      0.7041       0.000       0.000      0.4671     -0.4671    
   42      0.000       0.000     -0.1927E-01  0.1927E-01   0.000       0.000      0.5383     -0.5383       0.000       0.000    
   43    -0.3418       0.000       0.000       0.000     -0.7041       0.000       0.000       0.000     -0.4671     -0.4671    
   44     0.7113       0.000       0.000       0.000      0.6218E-01   0.000       0.000       0.000     -0.1514     -0.1514    
   45      0.000      0.7251       0.000       0.000       0.000     -0.7852       0.000       0.000      0.2804     -0.2804    
   46      0.000       0.000     -0.6660     -0.6660       0.000       0.000      0.1714E-01  0.1714E-01   0.000       0.000    
   47    -0.3662       0.000       0.000       0.000       1.041       0.000       0.000       0.000     -0.4720     -0.4720    
   48      0.000       0.000      0.1474     -0.1474       0.000       0.000     -0.1615      0.1615       0.000       0.000    
   49      0.000     -0.3381       0.000       0.000       0.000     -0.6869       0.000       0.000      0.4088     -0.4088    
   50      0.000       0.000      0.5159      0.5159       0.000       0.000     -0.1328E-01 -0.1328E-01   0.000       0.000    

              46          46          47          47          48          48          49          49          50          50

    1      0.000       0.000       0.000       0.000       0.000       0.000      -2.206       0.000       0.000       0.000    
    2      0.000       0.000       0.000       0.000       0.000       0.000      0.7081       0.000       0.000       0.000    
    3    -0.2517      0.2517       0.000       0.000      -3.115       0.000       0.000       0.000     -0.6457E-01 -0.6457E-01
    4      0.000       0.000       2.575       2.575       0.000       0.000       0.000       0.000       0.000       0.000    
    5    -0.2517     -0.2517       0.000       0.000       0.000      -3.115       0.000       0.000     -0.6457E-01  0.6457E-01
    6     -2.549       2.549       0.000       0.000       16.73       0.000       0.000       0.000      0.2418      0.2418    
    7      0.000       0.000      -16.18      -16.18       0.000       0.000       0.000       0.000       0.000       0.000    
    8     -2.549      -2.549       0.000       0.000       0.000       16.73       0.000       0.000      0.2418     -0.2418    
    9      0.000       0.000      0.5802     -0.5802       0.000       0.000     -0.2263       0.000       0.000       0.000    
   10      0.000       0.000      -5.690      -5.690       0.000       0.000       0.000       0.000       0.000       0.000    
   11    -0.2921      0.2921       0.000       0.000       6.161       0.000       0.000       0.000      0.6586      0.6586    
   12      0.000       0.000     -0.3350      0.3350       0.000       0.000     -0.3920       0.000       0.000       0.000    
   13    -0.2921     -0.2921       0.000       0.000       0.000       6.161       0.000       0.000      0.6586     -0.6586    
   14      0.000       0.000     -0.1422      0.1422       0.000       0.000      0.1369E-01   0.000       0.000       0.000    
   15      0.000       0.000     -0.1253     -0.1253       0.000       0.000       0.000       0.000       0.000       0.000    
   16    -0.4671      0.4671       0.000       0.000     -0.2171       0.000       0.000       0.000     -0.1341     -0.1341    
   17      0.000       0.000      0.8213E-01 -0.8213E-01   0.000       0.000      0.2372E-01   0.000       0.000       0.000    
   18    -0.4671     -0.4671       0.000       0.000       0.000     -0.2171       0.000       0.000     -0.1341      0.1341    
   19     0.1514      0.1514       0.000       0.000       0.000      -1.071       0.000       0.000     -0.1936      0.1936    
   20     0.2804     -0.2804       0.000       0.000      0.9450       0.000       0.000       0.000      0.8569E-01  0.8569E-01
   21      0.000       0.000     -0.5695     -0.5695       0.000       0.000       0.000     -0.1232       0.000       0.000    
   22     0.4720      0.4720       0.000       0.000       0.000      0.3658       0.000       0.000     -0.4155E-01  0.4155E-01
   23      0.000       0.000       0.000       0.000       0.000       0.000     -0.1183       0.000       0.000       0.000    
   24     0.4088     -0.4088       0.000       0.000     -0.6226       0.000       0.000       0.000     -0.1785     -0.1785    
   25      0.000       0.000     -0.7352     -0.7352       0.000       0.000       0.000      0.9539E-01   0.000       0.000    
   26      0.000       0.000       0.000       0.000       0.000       0.000       0.000       0.000       0.000      -2.206    
   27      0.000       0.000       0.000       0.000       0.000       0.000       0.000       0.000       0.000      0.7081    
   28      0.000       0.000      -3.115       0.000       0.000       0.000      0.6457E-01  0.6457E-01   0.000       0.000    
   29      0.000       1.480       0.000       0.000       2.575      -2.575       0.000       0.000       0.000       0.000    
   30      0.000       0.000       0.000       3.115       0.000       0.000     -0.6457E-01  0.6457E-01   0.000       0.000    
   31      0.000       0.000       16.73       0.000       0.000       0.000     -0.2418     -0.2418       0.000       0.000    
   32      0.000      -5.484       0.000       0.000      -16.18       16.18       0.000       0.000       0.000       0.000    
   33      0.000       0.000       0.000      -16.73       0.000       0.000      0.2418     -0.2418       0.000       0.000    
   34      1.528       0.000       0.000       0.000     -0.5802     -0.5802       0.000       0.000       0.000     -0.2263    
   35      0.000       4.444       0.000       0.000       5.690      -5.690       0.000       0.000       0.000       0.000    
   36      0.000       0.000      -6.161       0.000       0.000       0.000      0.6586      0.6586       0.000       0.000    
   37    -0.8819       0.000       0.000       0.000      0.3350      0.3350       0.000       0.000       0.000     -0.3920    
   38      0.000       0.000       0.000       6.161       0.000       0.000     -0.6586      0.6586       0.000       0.000    
   39    -0.2787       0.000       0.000       0.000      0.1422      0.1422       0.000       0.000       0.000      0.1369E-01
   40      0.000      -1.112       0.000       0.000      0.1253     -0.1253       0.000       0.000       0.000       0.000    
   41      0.000       0.000      0.2171       0.000       0.000       0.000     -0.1341     -0.1341       0.000       0.000    
   42     0.1609       0.000       0.000       0.000     -0.8213E-01 -0.8213E-01   0.000       0.000       0.000      0.2372E-01
   43      0.000       0.000       0.000     -0.2171       0.000       0.000      0.1341     -0.1341       0.000       0.000    
   44      0.000       0.000       0.000       1.071       0.000       0.000     -0.1936      0.1936       0.000       0.000    
   45      0.000       0.000      0.9450       0.000       0.000       0.000     -0.8569E-01 -0.8569E-01   0.000       0.000    
   46      0.000     -0.7182       0.000       0.000     -0.5695      0.5695       0.000       0.000      0.1232       0.000    
   47      0.000       0.000       0.000     -0.3658       0.000       0.000     -0.4155E-01  0.4155E-01   0.000       0.000    
   48      0.000       0.000       0.000       0.000       0.000       0.000       0.000       0.000       0.000      0.1183    
   49      0.000       0.000     -0.6226       0.000       0.000       0.000      0.1785      0.1785       0.000       0.000    
   50      0.000     -0.9271       0.000       0.000     -0.7352      0.7352       0.000       0.000     -0.9539E-01   0.000    
 EIGENVECTORS IN FORTRAN UNIT  8
 TTTTTTTTTTTTTTTTTTTTTTTTTTTTTT END         TELAPSE        8.15 TCPU        8.06
 EEEEEEEEEE TERMINATION  DATE 13 01 2016 TIME 10:45:40.3
