
         
 *******************************************************************************
 *                                                                             *
 *                                CRYSTAL09                                    *
 *                              public : 1.0                                   *
 *                      March 5th, 2010 - sequential executable                *
 *                                                                             *
 *                                                                             *
 *                                                                             *
 *                              MAIN AUTHORS                                   *
 *                                                                             *
 *    R. DOVESI(1,10), V.R. SAUNDERS(2), C. ROETTI(1,10), R. ORLANDO (1,3),    *
 *  C.M. ZICOVICH-WILSON(1,4), F. PASCALE(5), B. CIVALLERI(1,10), K. DOLL(6),  *
 *       N.M. HARRISON(2,7), I. J. BUSH(2), Ph. D'ARCO(8), M. LLUNELL(9)       *
 *                                                                             *
 * (1) THEORETICAL CHEMISTRY GROUP - UNIVERSITA' DI TORINO - TORINO (ITALY)    *
 *      http://www.crystal.unito.it                                            *
 * (2) COMPUTATIONAL SCIENCE & ENGINEERING DEPARTMENT - CCLRC DARESBURY (UK)   *
 *     http://www.cse.clrc.ac.uk/cmg/CRYSTAL/                                  *
 * (3) UNIVERSITA' DEL PIEMONTE ORIENTALE - ALESSANDRIA (ITALY)                *
 * (4) UNIVERSIDAD AUTONOMA DEL ESTADO DE MORELOS - CUERNAVACA (MEXICO)        *
 * (5) UNIVERSITE' HENRI POINCARE' - NANCY (FRANCE)                            *
 * (6) MPI FUER FESTKOERPERFORSCHUNG - STUTTGART (GERMANY)                     *
 * (7) IMPERIAL COLLEGE - LONDON (UK)                                          *
 * (8) UNIVERSITE' PIERRE ET MARIE CURIE - PARIS (FRANCE)                      *
 * (9) UNIVERSIDAD DE BARCELONA - BARCELONA (SPAIN)                            *
 *(10) NIS - NANOSTRUCTURED INTERFACES AND SURFACES - TORINO (ITALY)           *
 *     http://www.crystal.unito.it                                             *
 *******************************************************************************
 EEEEEEEEEE STARTING  DATE 11 01 2016 TIME 14:05:08.4
 BFD Basis.                                                                      

 CRYSTAL CALCULATION
 (INPUT ACCORDING TO THE INTERNATIONAL TABLES FOR X-RAY CRYSTALLOGRAPHY)
 CRYSTAL FAMILY                       :  CUBIC       
 CRYSTAL CLASS  (GROTH - 1921)        :  CUBIC HEXAKISOCTAHEDRAL              

 SPACE GROUP (CENTROSYMMETRIC)        :  F D 3 M         

 SHIFT OF THE ORIGIN                  :    7/8    7/8    7/8

 LATTICE PARAMETERS  (ANGSTROMS AND DEGREES) - CONVENTIONAL CELL
        A           B           C        ALPHA        BETA       GAMMA
     5.43071     5.43071     5.43071    90.00000    90.00000    90.00000


 NUMBER OF IRREDUCIBLE ATOMS IN THE CONVENTIONAL CELL:    2

 INPUT COORDINATES

 ATOM AT. N.              COORDINATES
   1 214     0.000000000000E+00  0.000000000000E+00  0.000000000000E+00
   2 214     2.500000000000E-01  2.500000000000E-01  2.500000000000E-01

 *******************************************************************************

 << INFORMATION >>: FROM NOW ON, ALL COORDINATES REFER TO THE PRIMITIVE CELL

 *******************************************************************************

 LATTICE PARAMETERS  (ANGSTROMS AND DEGREES) - PRIMITIVE CELL
       A          B          C         ALPHA     BETA     GAMMA        VOLUME
    3.84009    3.84009    3.84009    60.00000  60.00000  60.00000     40.041455

 INPUT LIST - ATOM N.   2 NOT IRREDUCIBLE

 COORDINATES OF THE EQUIVALENT ATOMS (FRACTIONAL UNITS)

 N. ATOM EQUIV AT. N.          X                  Y                  Z

   1   1   1  214 SI    0.00000000000E+00  0.00000000000E+00  0.00000000000E+00
   2   1   2  214 SI    2.50000000000E-01  2.50000000000E-01  2.50000000000E-01


 NUMBER OF SYMMETRY OPERATORS         :   48
 *******************************************************************************
 * GEOMETRY EDITING - INPUT COORDINATES ARE GIVEN IN ANGSTROM         
 *******************************************************************************

 GEOMETRY NOW FULLY CONSISTENT WITH THE GROUP

 GCALCO - MAX INDICES DIRECT LATTICE VECTOR    14    14    14
 NO.OF VECTORS CREATED 6999 STARS  105 RMAX    76.79793 BOHR

 GEOMETRY FOR WAVE FUNCTION - DIMENSIONALITY OF THE SYSTEM    3
 (NON PERIODIC DIRECTION: LATTICE PARAMETER FORMALLY SET TO 500)
 *******************************************************************************
 LATTICE PARAMETERS (ANGSTROMS AND DEGREES) - BOHR = 0.5291772083 ANGSTROM
 PRIMITIVE CELL - CENTRING CODE 5/0 VOLUME=    40.041455 - DENSITY  2.320 g/cm^3
         A              B              C           ALPHA      BETA       GAMMA 
     3.84009187     3.84009187     3.84009187    60.000000  60.000000  60.000000
 *******************************************************************************
 ATOMS IN THE ASYMMETRIC UNIT    1 - ATOMS IN THE UNIT CELL:    2
     ATOM              X/A                 Y/B                 Z/C    
 *******************************************************************************
   1 T 214 SI    0.000000000000E+00  0.000000000000E+00  0.000000000000E+00
   2 F 214 SI    2.500000000000E-01  2.500000000000E-01  2.500000000000E-01

 TRANSFORMATION MATRIX PRIMITIVE-CRYSTALLOGRAPHIC CELL
 -1.0000  1.0000  1.0000  1.0000 -1.0000  1.0000  1.0000  1.0000 -1.0000

 *******************************************************************************
 CRYSTALLOGRAPHIC CELL (VOLUME=        160.16581805)
         A              B              C           ALPHA      BETA       GAMMA 
     5.43071000     5.43071000     5.43071000    90.000000  90.000000  90.000000

 COORDINATES IN THE CRYSTALLOGRAPHIC CELL
     ATOM              X/A                 Y/B                 Z/C    
 *******************************************************************************
   1 T 214 SI    0.000000000000E+00  0.000000000000E+00  0.000000000000E+00
   2 F 214 SI    2.500000000000E-01 -2.500000000000E-01 -2.500000000000E-01

 T = ATOM BELONGING TO THE ASYMMETRIC UNIT

 ****  48 SYMMOPS - TRANSLATORS IN FRACTIONAL UNITS
  V INV                   ROTATION MATRICES                       TRANSLATOR
  1  1  1.00  0.00  0.00  0.00  1.00  0.00  0.00  0.00  1.00    0.00  0.00  0.00
  2  2  0.00  1.00  0.00  1.00  0.00  0.00 -1.00 -1.00 -1.00    0.00  0.00  0.00
  3  3 -1.00 -1.00 -1.00  0.00  0.00  1.00  0.00  1.00  0.00    0.00  0.00  0.00
  4  4  0.00  0.00  1.00 -1.00 -1.00 -1.00  1.00  0.00  0.00    0.00  0.00  0.00
  5  6  0.00  0.00  1.00  1.00  0.00  0.00  0.00  1.00  0.00    0.00  0.00  0.00
  6  5  0.00  1.00  0.00  0.00  0.00  1.00  1.00  0.00  0.00    0.00  0.00  0.00
  7  8  1.00  0.00  0.00  0.00  0.00  1.00 -1.00 -1.00 -1.00    0.00  0.00  0.00
  8  7  1.00  0.00  0.00 -1.00 -1.00 -1.00  0.00  1.00  0.00    0.00  0.00  0.00
  9 10 -1.00 -1.00 -1.00  0.00  1.00  0.00  1.00  0.00  0.00    0.00  0.00  0.00
 10  9  0.00  0.00  1.00  0.00  1.00  0.00 -1.00 -1.00 -1.00    0.00  0.00  0.00
 11 12  0.00  1.00  0.00 -1.00 -1.00 -1.00  0.00  0.00  1.00    0.00  0.00  0.00
 12 11 -1.00 -1.00 -1.00  1.00  0.00  0.00  0.00  0.00  1.00    0.00  0.00  0.00
 13 13  0.00 -1.00  0.00 -1.00  0.00  0.00  0.00  0.00 -1.00    0.25  0.25  0.25
 14 14 -1.00  0.00  0.00  0.00 -1.00  0.00  1.00  1.00  1.00    0.25  0.25  0.25
 15 16  0.00  0.00 -1.00  1.00  1.00  1.00  0.00 -1.00  0.00    0.25  0.25  0.25
 16 15  1.00  1.00  1.00  0.00  0.00 -1.00 -1.00  0.00  0.00    0.25  0.25  0.25
 17 17 -1.00  0.00  0.00  0.00  0.00 -1.00  0.00 -1.00  0.00    0.25  0.25  0.25
 18 18  0.00  0.00 -1.00  0.00 -1.00  0.00 -1.00  0.00  0.00    0.25  0.25  0.25
 19 21  0.00  0.00 -1.00 -1.00  0.00  0.00  1.00  1.00  1.00    0.25  0.25  0.25
 20 22  1.00  1.00  1.00 -1.00  0.00  0.00  0.00 -1.00  0.00    0.25  0.25  0.25
 21 19  0.00 -1.00  0.00  1.00  1.00  1.00 -1.00  0.00  0.00    0.25  0.25  0.25
 22 20  0.00 -1.00  0.00  0.00  0.00 -1.00  1.00  1.00  1.00    0.25  0.25  0.25
 23 23  1.00  1.00  1.00  0.00 -1.00  0.00  0.00  0.00 -1.00    0.25  0.25  0.25
 24 24 -1.00  0.00  0.00  1.00  1.00  1.00  0.00  0.00 -1.00    0.25  0.25  0.25
 25 25 -1.00  0.00  0.00  0.00 -1.00  0.00  0.00  0.00 -1.00    0.25  0.25  0.25
 26 26  0.00 -1.00  0.00 -1.00  0.00  0.00  1.00  1.00  1.00    0.25  0.25  0.25
 27 27  1.00  1.00  1.00  0.00  0.00 -1.00  0.00 -1.00  0.00    0.25  0.25  0.25
 28 28  0.00  0.00 -1.00  1.00  1.00  1.00 -1.00  0.00  0.00    0.25  0.25  0.25
 29 30  0.00  0.00 -1.00 -1.00  0.00  0.00  0.00 -1.00  0.00    0.25  0.25  0.25
 30 29  0.00 -1.00  0.00  0.00  0.00 -1.00 -1.00  0.00  0.00    0.25  0.25  0.25
 31 32 -1.00  0.00  0.00  0.00  0.00 -1.00  1.00  1.00  1.00    0.25  0.25  0.25
 32 31 -1.00  0.00  0.00  1.00  1.00  1.00  0.00 -1.00  0.00    0.25  0.25  0.25
 33 34  1.00  1.00  1.00  0.00 -1.00  0.00 -1.00  0.00  0.00    0.25  0.25  0.25
 34 33  0.00  0.00 -1.00  0.00 -1.00  0.00  1.00  1.00  1.00    0.25  0.25  0.25
 35 36  0.00 -1.00  0.00  1.00  1.00  1.00  0.00  0.00 -1.00    0.25  0.25  0.25
 36 35  1.00  1.00  1.00 -1.00  0.00  0.00  0.00  0.00 -1.00    0.25  0.25  0.25
 37 37  0.00  1.00  0.00  1.00  0.00  0.00  0.00  0.00  1.00    0.00  0.00  0.00
 38 38  1.00  0.00  0.00  0.00  1.00  0.00 -1.00 -1.00 -1.00    0.00  0.00  0.00
 39 40  0.00  0.00  1.00 -1.00 -1.00 -1.00  0.00  1.00  0.00    0.00  0.00  0.00
 40 39 -1.00 -1.00 -1.00  0.00  0.00  1.00  1.00  0.00  0.00    0.00  0.00  0.00
 41 41  1.00  0.00  0.00  0.00  0.00  1.00  0.00  1.00  0.00    0.00  0.00  0.00
 42 42  0.00  0.00  1.00  0.00  1.00  0.00  1.00  0.00  0.00    0.00  0.00  0.00
 43 45  0.00  0.00  1.00  1.00  0.00  0.00 -1.00 -1.00 -1.00    0.00  0.00  0.00
 44 46 -1.00 -1.00 -1.00  1.00  0.00  0.00  0.00  1.00  0.00    0.00  0.00  0.00
 45 43  0.00  1.00  0.00 -1.00 -1.00 -1.00  1.00  0.00  0.00    0.00  0.00  0.00
 46 44  0.00  1.00  0.00  0.00  0.00  1.00 -1.00 -1.00 -1.00    0.00  0.00  0.00
 47 47 -1.00 -1.00 -1.00  0.00  1.00  0.00  0.00  0.00  1.00    0.00  0.00  0.00
 48 48  1.00  0.00  0.00 -1.00 -1.00 -1.00  0.00  0.00  1.00    0.00  0.00  0.00

 DIRECT LATTICE VECTORS CARTESIAN COMPONENTS (ANGSTROM)
          X                    Y                    Z
   0.000000000000E+00   0.271535500000E+01   0.271535500000E+01
   0.271535500000E+01   0.000000000000E+00   0.271535500000E+01
   0.271535500000E+01   0.271535500000E+01   0.000000000000E+00


 CARTESIAN COORDINATES - PRIMITIVE CELL
 *******************************************************************************
 *      ATOM          X(ANGSTROM)         Y(ANGSTROM)         Z(ANGSTROM)
 *******************************************************************************
   1   214 SI    0.000000000000E+00  0.000000000000E+00  0.000000000000E+00
   2   214 SI    1.357677500000E+00 -1.357677500000E+00 -1.357677500000E+00

 *******************************************************************************
 *** PSEUDOPOTENTIAL INFORMATION ***
 *******************************************************************************

 ATOMIC NUMBER  14, NUCLEAR CHARGE  4.000, GIVEN IN INPUT       PSEUDOPOTENTIAL
   TYPE       EXPONENT      COEFF.    N      EXPONENT      COEFF.    N
  W0 TMS     1.8072106    4.0000000  -1     9.9963309    7.2288425   1
             2.5004323  -13.0672559   0
  P0 TMS     2.2668640   21.2053161   0
  P1 TMS     2.1165966   15.4369360   0

 *******************************************************************************
 LOCAL ATOMIC FUNCTIONS BASIS SET
 *******************************************************************************
   ATOM  X(AU)  Y(AU)  Z(AU)    NO. TYPE  EXPONENT  S COEF   P COEF   D/F/G COEF
 *******************************************************************************
   1 SI  0.000  0.000  0.000
                                  1 S  
                                         2.827E-01 4.643E-01 0.000E+00 0.000E+00
                                         6.141E-01-2.322E-03 0.000E+00 0.000E+00
                                         1.334E+00-2.682E-01 0.000E+00 0.000E+00
                                         2.899E+00 3.192E-02 0.000E+00 0.000E+00
                                         6.297E+00-1.060E-04 0.000E+00 0.000E+00
                                         1.368E+01-1.450E-04 0.000E+00 0.000E+00
                                         2.972E+01 6.700E-05 0.000E+00 0.000E+00
                                  2 S  
                                         5.075E-01 1.000E+00 0.000E+00 0.000E+00
                             3-   5 P  
                                         3.308E-01 0.000E+00 2.817E-01 0.000E+00
                                         6.897E-01 0.000E+00 6.988E-02 0.000E+00
                                         1.438E+00 0.000E+00-5.631E-02 0.000E+00
                                         2.997E+00 0.000E+00 7.440E-04 0.000E+00
                                         6.247E+00 0.000E+00-2.590E-04 0.000E+00
                                         1.302E+01 0.000E+00-2.200E-05 0.000E+00
                             6-   8 P  
                                         1.468E-01 0.000E+00 1.000E+00 0.000E+00
                             9-  13 D  
                                         1.704E-01 0.000E+00 0.000E+00 1.000E+00
                            14-  18 D  
                                         5.398E-01 0.000E+00 0.000E+00 1.000E+00
                            19-  25 F  
                                         3.530E-01 0.000E+00 0.000E+00 1.000E+00
   2 SI  2.566 -2.566 -2.566
 INFORMATION **** MAXCYCLE **** MAX NUMBER OF SCF CYCLES SET TO         100
 INFORMATION **** SAVEWF **** not fully tested
 INFORMATION **** READM2 **** FULL DIRECT SCF (MONO AND BIEL INT) SELECTED
 INFORMATION **** TOLDEE **** SCF TOL ON TOTAL ENERGY SET TO           6

 MODIFIED BROYDEN MIXING OF THE FOCK MATRIX
 WO PARAMETER(D.D. Johnson, PRB38, 12807,(1988)             1.0000E-04
 % OF FOCK/KS MATRICES MIXING WHEN BROYDEN METHOD IS ON             50
 NUMBER OF SCF ITERATIONS AFTER WHICH BROYDEN METHOD IS ACTIVE       2
 *******************************************************************************
 N. OF ATOMS PER CELL        2  COULOMB OVERLAP TOL         (T1) 10** -6
 NUMBER OF SHELLS           14  COULOMB PENETRATION TOL     (T2) 10** -6
 NUMBER OF AO               50  EXCHANGE OVERLAP TOL        (T3) 10** 20
 N. OF ELECTRONS PER CELL    8  EXCHANGE PSEUDO OVP (F(G))  (T4) 10** 20
 CORE ELECTRONS PER CELL     0  EXCHANGE PSEUDO OVP (P(G))  (T5) 10** 20
 N. OF SYMMETRY OPERATORS   48  POLE ORDER IN MONO ZONE                4
 *******************************************************************************
 TYPE OF CALCULATION :  RESTRICTED CLOSED SHELL
 KOHN-SHAM HAMILTONIAN

 (EXCHANGE)[CORRELATION] FUNCTIONAL:(PERDEW-BURKE-ERNZERHOF)[PERDEW-BURKE-ERNZERHOF]

 CORE  PSEUDO POTENTIAL         TOL. ON PSEUDO              (TP) 10**- 6

 CAPPA:IS1  8;IS2  8;IS3  8; K PTS MONK NET   29; SYMMOPS: K SPACE 48;G SPACE 48

 *******************************************************************************
 MAX NUMBER OF SCF CYCLES     100  CONVERGENCE ON DELTAP        10**-16
 WEIGHT OF F(I) IN F(I+1)      50% CONVERGENCE ON ENERGY        10**- 6
 SHRINK. FACT.(MONKH.)    8  8  8  NUMBER OF K POINTS IN THE IBZ     29
 SHRINKING FACTOR(GILAT NET)   16  NUMBER OF K POINTS(GILAT NET)    145
 *******************************************************************************
 *** K POINTS COORDINATES (OBLIQUE COORDINATES IN UNITS OF IS =  8)
   1-R(  0  0  0)   2-C(  1  0  0)   3-C(  2  0  0)   4-C(  3  0  0)
   5-R(  4  0  0)   6-C(  1  1  0)   7-C(  2  1  0)   8-C(  3  1  0)
   9-C(  4  1  0)  10-C(  5  1  0)  11-C(  6  1  0)  12-C(  7  1  0)
  13-C(  2  2  0)  14-C(  3  2  0)  15-C(  4  2  0)  16-C(  5  2  0)
  17-C(  6  2  0)  18-C(  3  3  0)  19-C(  4  3  0)  20-C(  5  3  0)
  21-R(  4  4  0)  22-C(  3  2  1)  23-C(  4  2  1)  24-C(  5  2  1)
  25-C(  4  3  1)  26-C(  5  3  1)  27-C(  6  3  1)  28-C(  5  4  1)
  29-C(  6  4  2)

 DIRECT LATTICE VECTORS COMPON. (A.U.)     RECIP. LATTICE VECTORS COMPON. (A.U.) 
        X            Y            Z              X            Y            Z
    0.0000000    5.1312773    5.1312773     -0.6122438    0.6122438    0.6122438
    5.1312773    0.0000000    5.1312773      0.6122438   -0.6122438    0.6122438
    5.1312773    5.1312773    0.0000000      0.6122438    0.6122438   -0.6122438

 DISK SPACE FOR EIGENVECTORS (FTN 10)     137500 REALS

 SYMMETRY ADAPTION OF THE BLOCH FUNCTIONS ENABLED

 DIMENSIONS  P(G)=   42058 F(G)=   21534 P(G),F(G) (IRR)    1735
 MAX G-VECTOR INDEX FOR 1- AND 2-ELECTRON INTEGRALS  81

 TTTTTTTTTTTTTTTTTTTTTTTTTTTTTT INPUT       TELAPSE        0.02 TCPU        0.01

 NEIGHBORS OF THE NON-EQUIVALENT ATOMS

 N = NUMBER OF NEIGHBORS AT DISTANCE R
    ATOM  N     R/ANG      R/AU   NEIGHBORS (ATOM LABELS AND CELL INDICES)
   1 SI   4     2.3516     4.4438   2 SI   0 0 0   2 SI   1 0 0   2 SI   1 0-1
                                    2 SI   1-1 0
   1 SI  12     3.8401     7.2567   1 SI  -1 0 0   1 SI   1 0 0   1 SI  -1 0 1
                                    1 SI   1 0-1   1 SI  -1 1 0   1 SI   1-1 0
                                    1 SI   0-1 0   1 SI   0 1 0   1 SI   0-1 1
                                    1 SI   0 1-1   1 SI   0 0-1   1 SI   0 0 1
   1 SI  12     4.5029     8.5093   2 SI   0 1 0   2 SI   0-1 0   2 SI   0 1-1
                                    2 SI   0-1 1   2 SI   0 0 1   2 SI   0 0-1
                                    2 SI   1 1-1   2 SI   1-1 1   2 SI   1-1-1
                                    2 SI   2 0-1   2 SI   2-1 0   2 SI   2-1-1
   1 SI   6     5.4307    10.2626   1 SI  -1-1 1   1 SI   1 1-1   1 SI  -1 1-1
                                    1 SI   1-1 1   1 SI  -1 1 1   1 SI   1-1-1
   1 SI  12     5.9180    11.1834   2 SI  -1 0 0   2 SI  -1 0 1   2 SI  -1 1 0
                                    2 SI   1 1 0   2 SI   1 1-2   2 SI   1 0 1
                                    2 SI   1 0-2   2 SI   1-2 1   2 SI   1-2 0
                                    2 SI   2 0 0   2 SI   2 0-2   2 SI   2-2 0
   1 SI  24     6.6512    12.5690   1 SI  -2 0 1   1 SI   2 0-1   1 SI  -2 1 0
                                    1 SI   2-1 0   1 SI  -2 1 1   1 SI   2-1-1
                                    1 SI  -1-1 0   1 SI   1 1 0   1 SI  -1-1 2
                                    1 SI   1 1-2   1 SI  -1 0-1   1 SI   1 0 1
                                    1 SI  -1 0 2   1 SI   1 0-2   1 SI  -1 2-1
                                    1 SI   1-2 1   1 SI  -1 2 0   1 SI   1-2 0
                                    1 SI   0-2 1   1 SI   0 2-1   1 SI   0-1-1
                                    1 SI   0 1 1   1 SI   0-1 2   1 SI   0 1-2


 THERE ARE NO SYMMETRY ALLOWED DIRECTIONS
 TTTTTTTTTTTTTTTTTTTTTTTTTTTTTT SYMM        TELAPSE        0.03 TCPU        0.02
 TTTTTTTTTTTTTTTTTTTTTTTTTTTTTT INT_SCREEN  TELAPSE        0.03 TCPU        0.02
 INFORMATION **** EXCBUF **** EXCH. BIPO BUFFER: WORDS USED =           0

 DFT PARAMETERS

     ATOM       ELECTRONS   NET CHARGE   R(ANGSTROM)
   1 214  SI      4.0000      0.0000     1.17000000

 SIZE OF GRID=        469
 TTTTTTTTTTTTTTTTTTTTTTTTTTTTTT MAKE_GRID2  TELAPSE        0.06 TCPU        0.05
 BECKE WEIGHT FUNCTION
 RADSAFE =     2.00
 TOLERANCES - DENSITY:10**- 6; POTENTIAL:10**- 9; GRID WGT:10**-14

 RADIAL INTEGRATION  - INTERVALS (POINTS,UPPER LIMIT):            1( 55,  4.0*R)

 ANGULAR INTEGRATION - INTERVALS (ACCURACY LEVEL [N. POINTS] UPPER LIMIT):
  1(  1[  38]   0.4)  2(  2[  50]   0.6)  3(  5[ 110]   0.8)  4(  8[ 194]   0.9)
  5( 11[ 302]   1.1)  6( 13[ 434]   2.3)  7( 11[ 302]   2.4)  8(  8[ 194]   2.6)
  9(  5[ 110]   2.8) 10(  1[  38]9999.0)
 TTTTTTTTTTTTTTTTTTTTTTTTTTTTTT INT_CALC    TELAPSE        0.09 TCPU        0.08
 EEEEEEEEEE INT_CALC TERMINATION  DATE 11 01 2016 TIME 14:05:08.5

 *******************************************************************************
 BFD Basis.                                                                      
 CRYSTAL - SCF - TYPE OF CALCULATION :  RESTRICTED CLOSED SHELL
 *******************************************************************************

 CAPPA:IS1  8;IS2  8;IS3  8; K PTS MONK NET   29; SYMMOPS: K SPACE 48;G SPACE 48

 TTTTTTTTTTTTTTTTTTTTTTTTTTTTTT SDIK        TELAPSE        0.11 TCPU        0.10

 AAAAAAAAAAAAAAAAAAAAAAAAAAAAAAAAAAAAAAAAAAAAAAAAAAAAAAAAAAAAAAAAAAAAAAAAAAAAAAA
         ATOMIC WAVEFUNCTION(S)


 NUCLEAR CHARGE  4.0  SYMMETRY SPECIES            S    P
 N. ELECTRONS    4.0  NUMBER OF PRIMITIVE GTOS    8    7
                      NUMBER OF CONTRACTED GTOS   2    2
                      NUMBER OF CLOSED SHELLS     1    0
                      OPEN SHELL OCCUPATION       0    2

  ZNUC SCFIT  TOTAL HF ENERGY   KINETIC ENERGY   VIRIAL THEOREM ACCURACY
   4.0   6   -3.417733083E+00  1.899433984E+00 -2.799342916E+00  7.6E-07

 AAAAAAAAAAAAAAAAAAAAAAAAAAAAAAAAAAAAAAAAAAAAAAAAAAAAAAAAAAAAAAAAAAAAAAAAAAAAAAA

 CHARGE NORMALIZATION FACTOR   1.00000000
 TOTAL ATOMIC CHARGES:
   4.0000000   4.0000000
 TTTTTTTTTTTTTTTTTTTTTTTTTTTTTT MOQGAD      TELAPSE        0.15 TCPU        0.14
 TTTTTTTTTTTTTTTTTTTTTTTTTTTTTT SHELLX      TELAPSE        1.34 TCPU        1.33
 TTTTTTTTTTTTTTTTTTTTTTTTTTTTTT MONMO3      TELAPSE        2.01 TCPU        2.00
 NUMERICALLY INTEGRATED DENSITY      8.0013842528
 TTTTTTTTTTTTTTTTTTTTTTTTTTTTTT NUMDFT      TELAPSE        2.15 TCPU        2.14
 CYC   0 ETOT(AU) -7.288316941723E+00 DETOT -7.29E+00 tst  0.00E+00 PX  1.00E+00
 CYCLE  0 WAVE FUNCTION SAVED IN FORTRAN UNIT 79
 TTTTTTTTTTTTTTTTTTTTTTTTTTTTTT FDIK        TELAPSE        2.18 TCPU        2.17
 INSULATING STATE
 TOP OF VALENCE BANDS -    BAND      4; K    1; EIG -7.4650433E-02 AU
 BOTTOM OF VIRTUAL BANDS - BAND      5; K   18; EIG -6.9597684E-02 AU
 BOTTOM OF VIRTUAL BANDS - BAND      5; K    1; EIG  8.8105190E-03 AU
 TTTTTTTTTTTTTTTTTTTTTTTTTTTTTT PDIG        TELAPSE        2.18 TCPU        2.17
 CHARGE NORMALIZATION FACTOR   1.00000000
 TOTAL ATOMIC CHARGES:
   4.0000000   4.0000000
 TTTTTTTTTTTTTTTTTTTTTTTTTTTTTT MOQGAD      TELAPSE        2.21 TCPU        2.20
 TTTTTTTTTTTTTTTTTTTTTTTTTTTTTT SHELLX      TELAPSE        4.32 TCPU        3.74
 TTTTTTTTTTTTTTTTTTTTTTTTTTTTTT MONMO3      TELAPSE        5.00 TCPU        4.42
 NUMERICALLY INTEGRATED DENSITY      8.0019357457
 TTTTTTTTTTTTTTTTTTTTTTTTTTTTTT NUMDFT      TELAPSE        5.39 TCPU        4.81
 CYC   1 ETOT(AU) -7.851328065678E+00 DETOT -5.63E-01 tst  0.00E+00 PX  1.00E+00
 CYCLE  1 WAVE FUNCTION SAVED IN FORTRAN UNIT 79
 TTTTTTTTTTTTTTTTTTTTTTTTTTTTTT FDIK        TELAPSE        5.40 TCPU        4.83
 INSULATING STATE
 TOP OF VALENCE BANDS -    BAND      4; K    1; EIG -1.8849483E-01 AU
 BOTTOM OF VIRTUAL BANDS - BAND      5; K   18; EIG -1.7199471E-01 AU
 BOTTOM OF VIRTUAL BANDS - BAND      5; K    1; EIG -9.7602185E-02 AU
 TTTTTTTTTTTTTTTTTTTTTTTTTTTTTT PDIG        TELAPSE        5.41 TCPU        4.83
 CHARGE NORMALIZATION FACTOR   1.00000000
 TOTAL ATOMIC CHARGES:
   4.0000000   4.0000000
 TTTTTTTTTTTTTTTTTTTTTTTTTTTTTT MOQGAD      TELAPSE        5.44 TCPU        4.86
 TTTTTTTTTTTTTTTTTTTTTTTTTTTTTT SHELLX      TELAPSE        6.92 TCPU        6.34
 TTTTTTTTTTTTTTTTTTTTTTTTTTTTTT MONMO3      TELAPSE        7.59 TCPU        7.02
 NUMERICALLY INTEGRATED DENSITY      8.0017539931
 TTTTTTTTTTTTTTTTTTTTTTTTTTTTTT NUMDFT      TELAPSE        8.00 TCPU        7.42
 CYC   2 ETOT(AU) -7.855272607629E+00 DETOT -3.94E-03 tst  1.77E-04 PX  2.35E-02
 CYCLE  2 WAVE FUNCTION SAVED IN FORTRAN UNIT 79
 MODIFIED BROYDEN: MIX%=  50 W0=  1.000000000000E-04 W=  1.857622993781E+00
 TTTTTTTTTTTTTTTTTTTTTTTTTTTTTT FDIK        TELAPSE        8.02 TCPU        7.44
 INSULATING STATE
 TOP OF VALENCE BANDS -    BAND      4; K    1; EIG -2.5645862E-01 AU
 BOTTOM OF VIRTUAL BANDS - BAND      5; K   18; EIG -2.3506071E-01 AU
 BOTTOM OF VIRTUAL BANDS - BAND      5; K    1; EIG -1.6269441E-01 AU
 TTTTTTTTTTTTTTTTTTTTTTTTTTTTTT PDIG        TELAPSE        8.02 TCPU        7.44
 CHARGE NORMALIZATION FACTOR   1.00000000
 TOTAL ATOMIC CHARGES:
   4.0000000   4.0000000
 TTTTTTTTTTTTTTTTTTTTTTTTTTTTTT MOQGAD      TELAPSE        8.05 TCPU        7.47
 TTTTTTTTTTTTTTTTTTTTTTTTTTTTTT SHELLX      TELAPSE        9.52 TCPU        8.94
 TTTTTTTTTTTTTTTTTTTTTTTTTTTTTT MONMO3      TELAPSE       10.19 TCPU        9.62
 NUMERICALLY INTEGRATED DENSITY      8.0016780488
 TTTTTTTTTTTTTTTTTTTTTTTTTTTTTT NUMDFT      TELAPSE       10.58 TCPU       10.01
 CYC   3 ETOT(AU) -7.855776919648E+00 DETOT -5.04E-04 tst  3.23E-05 PX  9.38E-03
 CYCLE  3 WAVE FUNCTION SAVED IN FORTRAN UNIT 79
 MODIFIED BROYDEN: MIX%=  50 W0=  1.000000000000E-04 W=  7.865242292898E+00
 TTTTTTTTTTTTTTTTTTTTTTTTTTTTTT FDIK        TELAPSE       10.89 TCPU       10.04
 INSULATING STATE
 TOP OF VALENCE BANDS -    BAND      4; K    1; EIG -2.8298885E-01 AU
 BOTTOM OF VIRTUAL BANDS - BAND      5; K   18; EIG -2.6014124E-01 AU
 BOTTOM OF VIRTUAL BANDS - BAND      5; K    1; EIG -1.8854475E-01 AU
 TTTTTTTTTTTTTTTTTTTTTTTTTTTTTT PDIG        TELAPSE       10.90 TCPU       10.04
 CHARGE NORMALIZATION FACTOR   1.00000000
 TOTAL ATOMIC CHARGES:
   4.0000000   4.0000000
 TTTTTTTTTTTTTTTTTTTTTTTTTTTTTT MOQGAD      TELAPSE       10.95 TCPU       10.09
 TTTTTTTTTTTTTTTTTTTTTTTTTTTTTT SHELLX      TELAPSE       12.45 TCPU       11.59
 TTTTTTTTTTTTTTTTTTTTTTTTTTTTTT MONMO3      TELAPSE       13.13 TCPU       12.27
 NUMERICALLY INTEGRATED DENSITY      8.0016550573
 TTTTTTTTTTTTTTTTTTTTTTTTTTTTTT NUMDFT      TELAPSE       13.51 TCPU       12.66
 CYC   4 ETOT(AU) -7.855799897147E+00 DETOT -2.30E-05 tst  2.84E-06 PX  2.48E-03
 CYCLE  4 WAVE FUNCTION SAVED IN FORTRAN UNIT 79
 MODIFIED BROYDEN: MIX%=  50 W0=  1.000000000000E-04 W=  3.279490955490E+01
 TTTTTTTTTTTTTTTTTTTTTTTTTTTTTT FDIK        TELAPSE       13.53 TCPU       12.68
 INSULATING STATE
 TOP OF VALENCE BANDS -    BAND      4; K    1; EIG -2.7646740E-01 AU
 BOTTOM OF VIRTUAL BANDS - BAND      5; K   18; EIG -2.5375755E-01 AU
 BOTTOM OF VIRTUAL BANDS - BAND      5; K    1; EIG -1.8200015E-01 AU
 TTTTTTTTTTTTTTTTTTTTTTTTTTTTTT PDIG        TELAPSE       13.53 TCPU       12.68
 CHARGE NORMALIZATION FACTOR   1.00000000
 TOTAL ATOMIC CHARGES:
   4.0000000   4.0000000
 TTTTTTTTTTTTTTTTTTTTTTTTTTTTTT MOQGAD      TELAPSE       13.56 TCPU       12.71
 TTTTTTTTTTTTTTTTTTTTTTTTTTTTTT SHELLX      TELAPSE       15.04 TCPU       14.19
 TTTTTTTTTTTTTTTTTTTTTTTTTTTTTT MONMO3      TELAPSE       15.72 TCPU       14.87
 NUMERICALLY INTEGRATED DENSITY      8.0016578333
 TTTTTTTTTTTTTTTTTTTTTTTTTTTTTT NUMDFT      TELAPSE       16.11 TCPU       15.26
 CYC   5 ETOT(AU) -7.855800066354E+00 DETOT -1.69E-07 tst  3.57E-08 PX  1.03E-04
 CYCLE  5 WAVE FUNCTION SAVED IN FORTRAN UNIT 79
 MODIFIED BROYDEN: MIX%=  50 W0=  1.000000000000E-04 W=  1.424002250171E+02
 TTTTTTTTTTTTTTTTTTTTTTTTTTTTTT FDIK        TELAPSE       16.12 TCPU       15.27
 INSULATING STATE
 TOP OF VALENCE BANDS -    BAND      4; K    1; EIG -2.7757539E-01 AU
 BOTTOM OF VIRTUAL BANDS - BAND      5; K   18; EIG -2.5484428E-01 AU
 BOTTOM OF VIRTUAL BANDS - BAND      5; K    1; EIG -1.8311029E-01 AU
 TTTTTTTTTTTTTTTTTTTTTTTTTTTTTT PDIG        TELAPSE       16.13 TCPU       15.28
 CHARGE NORMALIZATION FACTOR   1.00000000
 TOTAL ATOMIC CHARGES:
   4.0000000   4.0000000
 TTTTTTTTTTTTTTTTTTTTTTTTTTTTTT MOQGAD      TELAPSE       16.16 TCPU       15.30
 TTTTTTTTTTTTTTTTTTTTTTTTTTTTTT SHELLX      TELAPSE       17.64 TCPU       16.79
 +++ ENERGIES IN A.U. +++
 ::: EXT EL-POLE                                  -9.8456811278091E+01
 ::: EXT EL-SPHEROPOLE                             2.0413018081987E+00
 ::: BIELET ZONE E-E                               9.6956285780408E+01
 ::: TOTAL E-E                                     5.4077631051567E-01
 ::: TOTAL E-N + N-E                              -6.5776248251807E-01
 ::: TOTAL N-N                                    -8.3983737701781E+00
 ::: KINETIC ENERGY                                3.0693629126223E+00
 ::: PSEUDO TOTAL   ENERGY                        -5.4459970295581E+00
 ::: VIRIAL COEFFICIENT                            7.2090033385867E-01
 TTTTTTTTTTTTTTTTTTTTTTTTTTTTTT MONMO3      TELAPSE       18.31 TCPU       17.46
 NUMERICALLY INTEGRATED DENSITY      8.0016574196
 TTTTTTTTTTTTTTTTTTTTTTTTTTTTTT NUMDFT      TELAPSE       18.70 TCPU       17.85
 CYC   6 ETOT(AU) -7.855800076068E+00 DETOT -9.71E-09 tst  8.19E-10 PX  1.03E-04

 == SCF ENDED - CONVERGENCE ON ENERGY      E(AU) -7.8558000760684E+00 CYCLES   6


 ENERGY EXPRESSION=HARTREE+FOCK EXCH*0.00000+(PBE    EXCH)*1.00000+PBE    CORR


 TOTAL ENERGY(DFT)(AU)(  6) -7.8558000760684E+00 DE-9.7E-09 tester 8.2E-10
 TTTTTTTTTTTTTTTTTTTTTTTTTTTTTT EDFT        TELAPSE       18.70 TCPU       17.85

  FINAL EIGENVALUES (A.U.)
  (LABELS REFER TO SYMMETRY CLASSIFICATION)

   1 (  0  0  0)
 -6.2035E-01( 1) -2.7758E-01( 3) -2.7758E-01( 3) -2.7758E-01( 3) -1.8311E-01( 4)
 -1.8311E-01( 4) -1.8311E-01( 4) -1.4905E-01( 2)

  FINAL EIGENVECTORS

   1 (  0  0  0)


               1           2           3           4           5           6           7           8           9          10

    1     0.4796       0.000       0.000       0.000       0.000       0.000       0.000     -0.5091       0.000       0.000    
    2     0.1928       0.000       0.000       0.000       0.000       0.000       0.000     -0.2794       0.000       0.000    
    3      0.000      0.2763       0.000       0.000      0.2528       0.000       0.000       0.000       0.000       0.000    
    4      0.000       0.000      0.2763       0.000       0.000      0.2528       0.000       0.000       0.000       0.000    
    5      0.000       0.000       0.000      0.2763       0.000       0.000      0.2528       0.000       0.000       0.000    
    6      0.000      0.3313       0.000       0.000      0.2679       0.000       0.000       0.000       0.000       0.000    
    7      0.000       0.000      0.3313       0.000       0.000      0.2679       0.000       0.000       0.000       0.000    
    8      0.000       0.000       0.000      0.3313       0.000       0.000      0.2679       0.000       0.000       0.000    
    9      0.000       0.000       0.000       0.000       0.000       0.000       0.000       0.000     -0.4276       0.000    
   10      0.000       0.000      0.1199       0.000       0.000     -0.2542       0.000       0.000       0.000       0.000    
   11      0.000      0.1199       0.000       0.000     -0.2542       0.000       0.000       0.000       0.000       0.000    
   12      0.000       0.000       0.000       0.000       0.000       0.000       0.000       0.000       0.000     -0.4276    
   13      0.000       0.000       0.000      0.1199       0.000       0.000     -0.2542       0.000       0.000       0.000    
   14      0.000       0.000       0.000       0.000       0.000       0.000       0.000       0.000     -0.1972       0.000    
   15      0.000       0.000      0.7787E-01   0.000       0.000     -0.8283E-01   0.000       0.000       0.000       0.000    
   16      0.000      0.7787E-01   0.000       0.000     -0.8283E-01   0.000       0.000       0.000       0.000       0.000    
   17      0.000       0.000       0.000       0.000       0.000       0.000       0.000       0.000       0.000     -0.1972    
   18      0.000       0.000       0.000      0.7787E-01   0.000       0.000     -0.8283E-01   0.000       0.000       0.000    
   19      0.000       0.000       0.000     -0.6684E-02   0.000       0.000      0.3115E-01   0.000       0.000       0.000    
   20      0.000      0.4093E-02   0.000       0.000     -0.1908E-01   0.000       0.000       0.000       0.000       0.000    
   21      0.000       0.000      0.4093E-02   0.000       0.000     -0.1908E-01   0.000       0.000       0.000       0.000    
   22      0.000       0.000       0.000       0.000       0.000       0.000       0.000       0.000       0.000       0.000    
   23    -0.1125E-01   0.000       0.000       0.000       0.000       0.000       0.000      0.1439       0.000       0.000    
   24      0.000     -0.5284E-02   0.000       0.000      0.2463E-01   0.000       0.000       0.000       0.000       0.000    
   25      0.000       0.000      0.5284E-02   0.000       0.000     -0.2463E-01   0.000       0.000       0.000       0.000    
   26     0.4796       0.000       0.000       0.000       0.000       0.000       0.000      0.5091       0.000       0.000    
   27     0.1928       0.000       0.000       0.000       0.000       0.000       0.000      0.2794       0.000       0.000    
   28      0.000     -0.2763       0.000       0.000      0.2528       0.000       0.000       0.000       0.000       0.000    
   29      0.000       0.000     -0.2763       0.000       0.000      0.2528       0.000       0.000       0.000       0.000    
   30      0.000       0.000       0.000     -0.2763       0.000       0.000      0.2528       0.000       0.000       0.000    
   31      0.000     -0.3313       0.000       0.000      0.2679       0.000       0.000       0.000       0.000       0.000    
   32      0.000       0.000     -0.3313       0.000       0.000      0.2679       0.000       0.000       0.000       0.000    
   33      0.000       0.000       0.000     -0.3313       0.000       0.000      0.2679       0.000       0.000       0.000    
   34      0.000       0.000       0.000       0.000       0.000       0.000       0.000       0.000      0.4276       0.000    
   35      0.000       0.000      0.1199       0.000       0.000      0.2542       0.000       0.000       0.000       0.000    
   36      0.000      0.1199       0.000       0.000      0.2542       0.000       0.000       0.000       0.000       0.000    
   37      0.000       0.000       0.000       0.000       0.000       0.000       0.000       0.000       0.000      0.4276    
   38      0.000       0.000       0.000      0.1199       0.000       0.000      0.2542       0.000       0.000       0.000    
   39      0.000       0.000       0.000       0.000       0.000       0.000       0.000       0.000      0.1972       0.000    
   40      0.000       0.000      0.7787E-01   0.000       0.000      0.8283E-01   0.000       0.000       0.000       0.000    
   41      0.000      0.7787E-01   0.000       0.000      0.8283E-01   0.000       0.000       0.000       0.000       0.000    
   42      0.000       0.000       0.000       0.000       0.000       0.000       0.000       0.000       0.000      0.1972    
   43      0.000       0.000       0.000      0.7787E-01   0.000       0.000      0.8283E-01   0.000       0.000       0.000    
   44      0.000       0.000       0.000      0.6684E-02   0.000       0.000      0.3115E-01   0.000       0.000       0.000    
   45      0.000     -0.4093E-02   0.000       0.000     -0.1908E-01   0.000       0.000       0.000       0.000       0.000    
   46      0.000       0.000     -0.4093E-02   0.000       0.000     -0.1908E-01   0.000       0.000       0.000       0.000    
   47      0.000       0.000       0.000       0.000       0.000       0.000       0.000       0.000       0.000       0.000    
   48     0.1125E-01   0.000       0.000       0.000       0.000       0.000       0.000      0.1439       0.000       0.000    
   49      0.000      0.5284E-02   0.000       0.000      0.2463E-01   0.000       0.000       0.000       0.000       0.000    
   50      0.000       0.000     -0.5284E-02   0.000       0.000     -0.2463E-01   0.000       0.000       0.000       0.000    

              11          12          13          14          15          16          17          18          19          20

    1      0.000       0.000       0.000       0.000       0.000       0.000       0.000       0.000       0.000       0.000    
    2      0.000       0.000       0.000       0.000       0.000       0.000       0.000       0.000       0.000       0.000    
    3      0.000     -0.2297       0.000       0.000       0.000       0.000      0.1250       0.000       0.000     -0.6681    
    4      0.000       0.000     -0.2297       0.000       0.000       0.000       0.000      0.1250       0.000       0.000    
    5    -0.2297       0.000       0.000       0.000       0.000      0.1250       0.000       0.000     -0.6681       0.000    
    6      0.000     -0.5817       0.000       0.000       0.000       0.000     -0.3162       0.000       0.000      -2.787    
    7      0.000       0.000     -0.5817       0.000       0.000       0.000       0.000     -0.3162       0.000       0.000    
    8    -0.5817       0.000       0.000       0.000       0.000     -0.3162       0.000       0.000      -2.787       0.000    
    9      0.000       0.000       0.000       1.718       0.000       0.000       0.000       0.000       0.000       0.000    
   10      0.000       0.000      0.7688       0.000       0.000       0.000       0.000     -0.2602       0.000       0.000    
   11      0.000      0.7688       0.000       0.000       0.000       0.000     -0.2602       0.000       0.000      -2.214    
   12      0.000       0.000       0.000       0.000       1.718       0.000       0.000       0.000       0.000       0.000    
   13     0.7688       0.000       0.000       0.000       0.000     -0.2602       0.000       0.000      -2.214       0.000    
   14      0.000       0.000       0.000      0.4131       0.000       0.000       0.000       0.000       0.000       0.000    
   15      0.000       0.000      0.3764E-01   0.000       0.000       0.000       0.000      0.7151       0.000       0.000    
   16      0.000      0.3764E-01   0.000       0.000       0.000       0.000      0.7151       0.000       0.000     -0.1547    
   17      0.000       0.000       0.000       0.000      0.4131       0.000       0.000       0.000       0.000       0.000    
   18     0.3764E-01   0.000       0.000       0.000       0.000      0.7151       0.000       0.000     -0.1547       0.000    
   19     0.1077       0.000       0.000       0.000       0.000     -0.2288       0.000       0.000      0.1398E-02   0.000    
   20      0.000     -0.6596E-01   0.000       0.000       0.000       0.000      0.1401       0.000       0.000     -0.8558E-03
   21      0.000       0.000     -0.6596E-01   0.000       0.000       0.000       0.000      0.1401       0.000       0.000    
   22      0.000       0.000       0.000       0.000       0.000       0.000       0.000       0.000       0.000       0.000    
   23      0.000       0.000       0.000       0.000       0.000       0.000       0.000       0.000       0.000       0.000    
   24      0.000      0.8515E-01   0.000       0.000       0.000       0.000     -0.1809       0.000       0.000      0.1105E-02
   25      0.000       0.000     -0.8515E-01   0.000       0.000       0.000       0.000      0.1809       0.000       0.000    
   26      0.000       0.000       0.000       0.000       0.000       0.000       0.000       0.000       0.000       0.000    
   27      0.000       0.000       0.000       0.000       0.000       0.000       0.000       0.000       0.000       0.000    
   28      0.000      0.2297       0.000       0.000       0.000       0.000     -0.1250       0.000       0.000     -0.6681    
   29      0.000       0.000      0.2297       0.000       0.000       0.000       0.000     -0.1250       0.000       0.000    
   30     0.2297       0.000       0.000       0.000       0.000     -0.1250       0.000       0.000     -0.6681       0.000    
   31      0.000      0.5817       0.000       0.000       0.000       0.000      0.3162       0.000       0.000      -2.787    
   32      0.000       0.000      0.5817       0.000       0.000       0.000       0.000      0.3162       0.000       0.000    
   33     0.5817       0.000       0.000       0.000       0.000      0.3162       0.000       0.000      -2.787       0.000    
   34      0.000       0.000       0.000       1.718       0.000       0.000       0.000       0.000       0.000       0.000    
   35      0.000       0.000      0.7688       0.000       0.000       0.000       0.000     -0.2602       0.000       0.000    
   36      0.000      0.7688       0.000       0.000       0.000       0.000     -0.2602       0.000       0.000       2.214    
   37      0.000       0.000       0.000       0.000       1.718       0.000       0.000       0.000       0.000       0.000    
   38     0.7688       0.000       0.000       0.000       0.000     -0.2602       0.000       0.000       2.214       0.000    
   39      0.000       0.000       0.000      0.4131       0.000       0.000       0.000       0.000       0.000       0.000    
   40      0.000       0.000      0.3764E-01   0.000       0.000       0.000       0.000      0.7151       0.000       0.000    
   41      0.000      0.3764E-01   0.000       0.000       0.000       0.000      0.7151       0.000       0.000      0.1547    
   42      0.000       0.000       0.000       0.000      0.4131       0.000       0.000       0.000       0.000       0.000    
   43     0.3764E-01   0.000       0.000       0.000       0.000      0.7151       0.000       0.000      0.1547       0.000    
   44    -0.1077       0.000       0.000       0.000       0.000      0.2288       0.000       0.000      0.1398E-02   0.000    
   45      0.000      0.6596E-01   0.000       0.000       0.000       0.000     -0.1401       0.000       0.000     -0.8558E-03
   46      0.000       0.000      0.6596E-01   0.000       0.000       0.000       0.000     -0.1401       0.000       0.000    
   47      0.000       0.000       0.000       0.000       0.000       0.000       0.000       0.000       0.000       0.000    
   48      0.000       0.000       0.000       0.000       0.000       0.000       0.000       0.000       0.000       0.000    
   49      0.000     -0.8515E-01   0.000       0.000       0.000       0.000      0.1809       0.000       0.000      0.1105E-02
   50      0.000       0.000      0.8515E-01   0.000       0.000       0.000       0.000     -0.1809       0.000       0.000    

              21          22          23          24          25          26          27          28          29          30

    1      0.000       0.000       0.000       0.000     -0.1944      0.4725       0.000       0.000       0.000       0.000    
    2      0.000       0.000       0.000       0.000     -0.4147E-01  0.3424       0.000       0.000       0.000       0.000    
    3      0.000       0.000       0.000       0.000       0.000       0.000      0.5447       0.000       0.000       0.000    
    4    -0.6681       0.000       0.000       0.000       0.000       0.000       0.000      0.5447       0.000       0.000    
    5      0.000       0.000       0.000       0.000       0.000       0.000       0.000       0.000      0.5447       0.000    
    6      0.000       0.000       0.000       0.000       0.000       0.000      0.4949       0.000       0.000       0.000    
    7     -2.787       0.000       0.000       0.000       0.000       0.000       0.000      0.4949       0.000       0.000    
    8      0.000       0.000       0.000       0.000       0.000       0.000       0.000       0.000      0.4949       0.000    
    9      0.000       0.000       0.000       0.000       0.000       0.000       0.000       0.000       0.000      0.7275    
   10     -2.214       0.000       0.000       0.000       0.000       0.000       0.000       1.051       0.000       0.000    
   11      0.000       0.000       0.000       0.000       0.000       0.000       1.051       0.000       0.000       0.000    
   12      0.000       0.000       0.000       0.000       0.000       0.000       0.000       0.000       0.000       0.000    
   13      0.000       0.000       0.000       0.000       0.000       0.000       0.000       0.000       1.051       0.000    
   14      0.000       0.000       0.000       0.000       0.000       0.000       0.000       0.000       0.000     -0.9841    
   15    -0.1547       0.000       0.000       0.000       0.000       0.000       0.000     -0.8381       0.000       0.000    
   16      0.000       0.000       0.000       0.000       0.000       0.000     -0.8381       0.000       0.000       0.000    
   17      0.000       0.000       0.000       0.000       0.000       0.000       0.000       0.000       0.000       0.000    
   18      0.000       0.000       0.000       0.000       0.000       0.000       0.000       0.000     -0.8381       0.000    
   19      0.000       0.000       0.000       0.000       0.000       0.000       0.000       0.000     -0.1912       0.000    
   20      0.000       0.000     -0.4560       0.000       0.000       0.000      0.1171       0.000       0.000       0.000    
   21    -0.8558E-03   0.000       0.000      0.4560       0.000       0.000       0.000      0.1171       0.000       0.000    
   22      0.000      0.5768       0.000       0.000       0.000       0.000       0.000       0.000       0.000       0.000    
   23      0.000       0.000       0.000       0.000      0.6478      0.9873       0.000       0.000       0.000       0.000    
   24      0.000       0.000     -0.3532       0.000       0.000       0.000     -0.1511       0.000       0.000       0.000    
   25    -0.1105E-02   0.000       0.000     -0.3532       0.000       0.000       0.000      0.1511       0.000       0.000    
   26      0.000       0.000       0.000       0.000     -0.1944     -0.4725       0.000       0.000       0.000       0.000    
   27      0.000       0.000       0.000       0.000     -0.4147E-01 -0.3424       0.000       0.000       0.000       0.000    
   28      0.000       0.000       0.000       0.000       0.000       0.000      0.5447       0.000       0.000       0.000    
   29    -0.6681       0.000       0.000       0.000       0.000       0.000       0.000      0.5447       0.000       0.000    
   30      0.000       0.000       0.000       0.000       0.000       0.000       0.000       0.000      0.5447       0.000    
   31      0.000       0.000       0.000       0.000       0.000       0.000      0.4949       0.000       0.000       0.000    
   32     -2.787       0.000       0.000       0.000       0.000       0.000       0.000      0.4949       0.000       0.000    
   33      0.000       0.000       0.000       0.000       0.000       0.000       0.000       0.000      0.4949       0.000    
   34      0.000       0.000       0.000       0.000       0.000       0.000       0.000       0.000       0.000     -0.7275    
   35      2.214       0.000       0.000       0.000       0.000       0.000       0.000      -1.051       0.000       0.000    
   36      0.000       0.000       0.000       0.000       0.000       0.000      -1.051       0.000       0.000       0.000    
   37      0.000       0.000       0.000       0.000       0.000       0.000       0.000       0.000       0.000       0.000    
   38      0.000       0.000       0.000       0.000       0.000       0.000       0.000       0.000      -1.051       0.000    
   39      0.000       0.000       0.000       0.000       0.000       0.000       0.000       0.000       0.000      0.9841    
   40     0.1547       0.000       0.000       0.000       0.000       0.000       0.000      0.8381       0.000       0.000    
   41      0.000       0.000       0.000       0.000       0.000       0.000      0.8381       0.000       0.000       0.000    
   42      0.000       0.000       0.000       0.000       0.000       0.000       0.000       0.000       0.000       0.000    
   43      0.000       0.000       0.000       0.000       0.000       0.000       0.000       0.000      0.8381       0.000    
   44      0.000       0.000       0.000       0.000       0.000       0.000       0.000       0.000     -0.1912       0.000    
   45      0.000       0.000     -0.4560       0.000       0.000       0.000      0.1171       0.000       0.000       0.000    
   46    -0.8558E-03   0.000       0.000      0.4560       0.000       0.000       0.000      0.1171       0.000       0.000    
   47      0.000      0.5768       0.000       0.000       0.000       0.000       0.000       0.000       0.000       0.000    
   48      0.000       0.000       0.000       0.000     -0.6478      0.9873       0.000       0.000       0.000       0.000    
   49      0.000       0.000     -0.3532       0.000       0.000       0.000     -0.1511       0.000       0.000       0.000    
   50    -0.1105E-02   0.000       0.000     -0.3532       0.000       0.000       0.000      0.1511       0.000       0.000    

              31          32          33          34          35          36          37          38          39          40

    1      0.000       0.000       0.000       0.000       0.000       0.000       0.000       0.000       0.000       0.000    
    2      0.000       0.000       0.000       0.000       0.000       0.000       0.000       0.000       0.000       0.000    
    3      0.000      0.1960       0.000       0.000      -2.400       0.000       0.000       0.000       0.000       0.000    
    4      0.000       0.000      0.1960       0.000       0.000      -2.400       0.000       0.000       0.000       0.000    
    5      0.000       0.000       0.000      0.1960       0.000       0.000      -2.400       0.000       0.000       0.000    
    6      0.000      -3.127       0.000       0.000       3.767       0.000       0.000       0.000       0.000       0.000    
    7      0.000       0.000      -3.127       0.000       0.000       3.767       0.000       0.000       0.000       0.000    
    8      0.000       0.000       0.000      -3.127       0.000       0.000       3.767       0.000       0.000       0.000    
    9      0.000       0.000       0.000       0.000       0.000       0.000       0.000      -5.128       0.000       0.000    
   10      0.000       0.000      -1.304       0.000       0.000     -0.7609       0.000       0.000       0.000       0.000    
   11      0.000      -1.304       0.000       0.000     -0.7609       0.000       0.000       0.000       0.000       0.000    
   12     0.7275       0.000       0.000       0.000       0.000       0.000       0.000       0.000      -5.128       0.000    
   13      0.000       0.000       0.000      -1.304       0.000       0.000     -0.7609       0.000       0.000       0.000    
   14      0.000       0.000       0.000       0.000       0.000       0.000       0.000       1.138       0.000       0.000    
   15      0.000       0.000     -0.2810       0.000       0.000      0.3578E-01   0.000       0.000       0.000       0.000    
   16      0.000     -0.2810       0.000       0.000      0.3578E-01   0.000       0.000       0.000       0.000       0.000    
   17    -0.9841       0.000       0.000       0.000       0.000       0.000       0.000       0.000       1.138       0.000    
   18      0.000       0.000       0.000     -0.2810       0.000       0.000      0.3578E-01   0.000       0.000       0.000    
   19      0.000       0.000       0.000       1.063       0.000       0.000      0.1241E-01   0.000       0.000       0.000    
   20      0.000     -0.6509       0.000       0.000     -0.7598E-02   0.000       0.000       0.000       0.000     -0.9854    
   21      0.000       0.000     -0.6509       0.000       0.000     -0.7598E-02   0.000       0.000       0.000       0.000    
   22      0.000       0.000       0.000       0.000       0.000       0.000       0.000       0.000       0.000       0.000    
   23      0.000       0.000       0.000       0.000       0.000       0.000       0.000       0.000       0.000       0.000    
   24      0.000      0.8403       0.000       0.000      0.9808E-02   0.000       0.000       0.000       0.000     -0.7633    
   25      0.000       0.000     -0.8403       0.000       0.000     -0.9808E-02   0.000       0.000       0.000       0.000    
   26      0.000       0.000       0.000       0.000       0.000       0.000       0.000       0.000       0.000       0.000    
   27      0.000       0.000       0.000       0.000       0.000       0.000       0.000       0.000       0.000       0.000    
   28      0.000      0.1960       0.000       0.000       2.400       0.000       0.000       0.000       0.000       0.000    
   29      0.000       0.000      0.1960       0.000       0.000       2.400       0.000       0.000       0.000       0.000    
   30      0.000       0.000       0.000      0.1960       0.000       0.000       2.400       0.000       0.000       0.000    
   31      0.000      -3.127       0.000       0.000      -3.767       0.000       0.000       0.000       0.000       0.000    
   32      0.000       0.000      -3.127       0.000       0.000      -3.767       0.000       0.000       0.000       0.000    
   33      0.000       0.000       0.000      -3.127       0.000       0.000      -3.767       0.000       0.000       0.000    
   34      0.000       0.000       0.000       0.000       0.000       0.000       0.000      -5.128       0.000       0.000    
   35      0.000       0.000       1.304       0.000       0.000     -0.7609       0.000       0.000       0.000       0.000    
   36      0.000       1.304       0.000       0.000     -0.7609       0.000       0.000       0.000       0.000       0.000    
   37    -0.7275       0.000       0.000       0.000       0.000       0.000       0.000       0.000      -5.128       0.000    
   38      0.000       0.000       0.000       1.304       0.000       0.000     -0.7609       0.000       0.000       0.000    
   39      0.000       0.000       0.000       0.000       0.000       0.000       0.000       1.138       0.000       0.000    
   40      0.000       0.000      0.2810       0.000       0.000      0.3578E-01   0.000       0.000       0.000       0.000    
   41      0.000      0.2810       0.000       0.000      0.3578E-01   0.000       0.000       0.000       0.000       0.000    
   42     0.9841       0.000       0.000       0.000       0.000       0.000       0.000       0.000       1.138       0.000    
   43      0.000       0.000       0.000      0.2810       0.000       0.000      0.3578E-01   0.000       0.000       0.000    
   44      0.000       0.000       0.000       1.063       0.000       0.000     -0.1241E-01   0.000       0.000       0.000    
   45      0.000     -0.6509       0.000       0.000      0.7598E-02   0.000       0.000       0.000       0.000      0.9854    
   46      0.000       0.000     -0.6509       0.000       0.000      0.7598E-02   0.000       0.000       0.000       0.000    
   47      0.000       0.000       0.000       0.000       0.000       0.000       0.000       0.000       0.000       0.000    
   48      0.000       0.000       0.000       0.000       0.000       0.000       0.000       0.000       0.000       0.000    
   49      0.000      0.8403       0.000       0.000     -0.9808E-02   0.000       0.000       0.000       0.000      0.7633    
   50      0.000       0.000     -0.8403       0.000       0.000      0.9808E-02   0.000       0.000       0.000       0.000    

              41          42          43          44          45          46          47          48          49          50

    1      0.000       0.000       0.000       0.000       0.000     -0.6225       0.000       0.000       0.000       1.280    
    2      0.000       0.000       0.000       0.000       0.000      0.9151       0.000       0.000       0.000     -0.8476    
    3      0.000       0.000     -0.1023       0.000       0.000       0.000       6.187       0.000       0.000       0.000    
    4      0.000       0.000       0.000     -0.1023       0.000       0.000       0.000       6.187       0.000       0.000    
    5      0.000       0.000       0.000       0.000     -0.1023       0.000       0.000       0.000       6.187       0.000    
    6      0.000       0.000      -1.528       0.000       0.000       0.000      -45.22       0.000       0.000       0.000    
    7      0.000       0.000       0.000      -1.528       0.000       0.000       0.000      -45.22       0.000       0.000    
    8      0.000       0.000       0.000       0.000      -1.528       0.000       0.000       0.000      -45.22       0.000    
    9      0.000       0.000       0.000       0.000       0.000       0.000       0.000       0.000       0.000       0.000    
   10      0.000       0.000       0.000       1.704       0.000       0.000       0.000      -24.27       0.000       0.000    
   11      0.000       0.000       1.704       0.000       0.000       0.000      -24.27       0.000       0.000       0.000    
   12      0.000       0.000       0.000       0.000       0.000       0.000       0.000       0.000       0.000       0.000    
   13      0.000       0.000       0.000       0.000       1.704       0.000       0.000       0.000      -24.27       0.000    
   14      0.000       0.000       0.000       0.000       0.000       0.000       0.000       0.000       0.000       0.000    
   15      0.000       0.000       0.000     -0.7277       0.000       0.000       0.000       1.268       0.000       0.000    
   16      0.000       0.000     -0.7277       0.000       0.000       0.000       1.268       0.000       0.000       0.000    
   17      0.000       0.000       0.000       0.000       0.000       0.000       0.000       0.000       0.000       0.000    
   18      0.000       0.000       0.000       0.000     -0.7277       0.000       0.000       0.000       1.268       0.000    
   19      0.000       0.000       0.000       0.000     -0.9342       0.000       0.000       0.000       1.172       0.000    
   20      0.000       0.000      0.5721       0.000       0.000       0.000     -0.7178       0.000       0.000       0.000    
   21     0.9854       0.000       0.000      0.5721       0.000       0.000       0.000     -0.7178       0.000       0.000    
   22      0.000       1.246       0.000       0.000       0.000       0.000       0.000       0.000       0.000       0.000    
   23      0.000       0.000       0.000       0.000       0.000     -0.5235E-01   0.000       0.000       0.000      0.3936    
   24      0.000       0.000     -0.7386       0.000       0.000       0.000      0.9266       0.000       0.000       0.000    
   25    -0.7633       0.000       0.000      0.7386       0.000       0.000       0.000     -0.9266       0.000       0.000    
   26      0.000       0.000       0.000       0.000       0.000     -0.6225       0.000       0.000       0.000      -1.280    
   27      0.000       0.000       0.000       0.000       0.000      0.9151       0.000       0.000       0.000      0.8476    
   28      0.000       0.000      0.1023       0.000       0.000       0.000       6.187       0.000       0.000       0.000    
   29      0.000       0.000       0.000      0.1023       0.000       0.000       0.000       6.187       0.000       0.000    
   30      0.000       0.000       0.000       0.000      0.1023       0.000       0.000       0.000       6.187       0.000    
   31      0.000       0.000       1.528       0.000       0.000       0.000      -45.22       0.000       0.000       0.000    
   32      0.000       0.000       0.000       1.528       0.000       0.000       0.000      -45.22       0.000       0.000    
   33      0.000       0.000       0.000       0.000       1.528       0.000       0.000       0.000      -45.22       0.000    
   34      0.000       0.000       0.000       0.000       0.000       0.000       0.000       0.000       0.000       0.000    
   35      0.000       0.000       0.000       1.704       0.000       0.000       0.000       24.27       0.000       0.000    
   36      0.000       0.000       1.704       0.000       0.000       0.000       24.27       0.000       0.000       0.000    
   37      0.000       0.000       0.000       0.000       0.000       0.000       0.000       0.000       0.000       0.000    
   38      0.000       0.000       0.000       0.000       1.704       0.000       0.000       0.000       24.27       0.000    
   39      0.000       0.000       0.000       0.000       0.000       0.000       0.000       0.000       0.000       0.000    
   40      0.000       0.000       0.000     -0.7277       0.000       0.000       0.000      -1.268       0.000       0.000    
   41      0.000       0.000     -0.7277       0.000       0.000       0.000      -1.268       0.000       0.000       0.000    
   42      0.000       0.000       0.000       0.000       0.000       0.000       0.000       0.000       0.000       0.000    
   43      0.000       0.000       0.000       0.000     -0.7277       0.000       0.000       0.000      -1.268       0.000    
   44      0.000       0.000       0.000       0.000      0.9342       0.000       0.000       0.000       1.172       0.000    
   45      0.000       0.000     -0.5721       0.000       0.000       0.000     -0.7178       0.000       0.000       0.000    
   46    -0.9854       0.000       0.000     -0.5721       0.000       0.000       0.000     -0.7178       0.000       0.000    
   47      0.000      -1.246       0.000       0.000       0.000       0.000       0.000       0.000       0.000       0.000    
   48      0.000       0.000       0.000       0.000       0.000      0.5235E-01   0.000       0.000       0.000      0.3936    
   49      0.000       0.000      0.7386       0.000       0.000       0.000      0.9266       0.000       0.000       0.000    
   50     0.7633       0.000       0.000     -0.7386       0.000       0.000       0.000     -0.9266       0.000       0.000    

   2 (  1  0  0)


               1           1           2           2           3           3           4           4           5           5

    1     0.2190      0.2294E-02  0.5326E-01 -0.1637       0.000       0.000       0.000       0.000     -0.2127     -0.1503    
    2     0.2584E-01  0.3089E-02  0.2240E-01 -0.6837E-01   0.000       0.000       0.000       0.000     -0.1091     -0.7965E-01
    3     0.1316E-01  0.6429E-01  0.1264      0.3596E-02  0.1937     -0.8468E-02  0.1118     -0.4889E-02  0.1033     -0.3920E-02
    4    -0.1316E-01 -0.6429E-01 -0.1264     -0.3596E-02  0.1937     -0.8468E-02 -0.1118      0.4889E-02 -0.1033      0.3920E-02
    5    -0.1316E-01 -0.6429E-01 -0.1264     -0.3596E-02   0.000       0.000      0.2237     -0.9778E-02 -0.1033      0.3920E-02
    6    -0.1286     -0.5455      0.1649      0.7124E-02  0.2158     -0.9120E-01  0.1246     -0.5265E-01  0.1817      0.9219E-02
    7     0.1286      0.5455     -0.1649     -0.7124E-02  0.2158     -0.9120E-01 -0.1246      0.5265E-01 -0.1817     -0.9219E-02
    8     0.1286      0.5455     -0.1649     -0.7124E-02   0.000       0.000      0.2491     -0.1053     -0.1817     -0.9219E-02
    9      0.000       0.000       0.000       0.000       0.000       0.000     -0.1067E-01 -0.1056E-01   0.000       0.000    
   10     0.3089E-01  0.2811     -0.4275E-01 -0.5931E-01  0.4809E-01 -0.9081E-01 -0.2777E-01  0.5243E-01  0.9309E-01  0.6528E-01
   11    -0.3089E-01 -0.2811      0.4275E-01  0.5931E-01  0.4809E-01 -0.9081E-01  0.2777E-01 -0.5243E-01 -0.9309E-01 -0.6528E-01
   12      0.000       0.000       0.000       0.000      0.1067E-01  0.1056E-01   0.000       0.000       0.000       0.000    
   13     0.3089E-01  0.2811     -0.4275E-01 -0.5931E-01   0.000       0.000      0.5553E-01 -0.1049      0.9309E-01  0.6528E-01
   14      0.000       0.000       0.000       0.000       0.000       0.000     -0.6483E-02 -0.5383E-02   0.000       0.000    
   15     0.3983E-02 -0.1207E-01 -0.2552E-01 -0.2081E-01  0.4457E-01 -0.2307E-01 -0.2573E-01  0.1332E-01  0.3731E-01  0.2396E-01
   16    -0.3983E-02  0.1207E-01  0.2552E-01  0.2081E-01  0.4457E-01 -0.2307E-01  0.2573E-01 -0.1332E-01 -0.3731E-01 -0.2396E-01
   17      0.000       0.000       0.000       0.000      0.6483E-02  0.5383E-02   0.000       0.000       0.000       0.000    
   18     0.3983E-02 -0.1207E-01 -0.2552E-01 -0.2081E-01   0.000       0.000      0.5146E-01 -0.2664E-01  0.3731E-01  0.2396E-01
   19    -0.7995E-02 -0.1663E-01  0.4009E-02  0.6251E-02   0.000       0.000     -0.3383E-02  0.8693E-02 -0.9994E-02 -0.1080E-01
   20    -0.4896E-02 -0.1019E-01  0.2455E-02  0.3828E-02  0.3458E-02 -0.3409E-02 -0.1847E-02 -0.4743E-02 -0.6120E-02 -0.6613E-02
   21     0.4896E-02  0.1019E-01 -0.2455E-02 -0.3828E-02  0.3458E-02 -0.3409E-02  0.1847E-02  0.4743E-02  0.6120E-02  0.6613E-02
   22      0.000       0.000       0.000       0.000     -0.4211E-02 -0.3040E-02   0.000       0.000       0.000       0.000    
   23    -0.4040E-02 -0.7459E-03 -0.1767E-01  0.2716E-01   0.000       0.000       0.000       0.000      0.6162E-01  0.2764E-03
   24     0.6321E-02  0.1315E-01 -0.3169E-02 -0.4942E-02 -0.1027E-02  0.6883E-02 -0.3570E-02  0.1824E-02  0.7901E-02  0.8537E-02
   25     0.6321E-02  0.1315E-01 -0.3169E-02 -0.4942E-02  0.1027E-02 -0.6883E-02 -0.3570E-02  0.1824E-02  0.7901E-02  0.8537E-02
   26     0.1798     -0.1250     -0.6949E-02  0.1720       0.000       0.000       0.000       0.000      0.2002     -0.1665    
   27     0.1963E-01 -0.1708E-01 -0.2755E-02  0.7189E-01   0.000       0.000       0.000       0.000      0.1025     -0.8799E-01
   28     0.2527E-01  0.6056E-01 -0.1198     -0.4056E-01 -0.5906E-01  0.1847     -0.3410E-01  0.1066      0.1033     -0.4218E-02
   29    -0.2527E-01 -0.6056E-01  0.1198      0.4056E-01 -0.5906E-01  0.1847      0.3410E-01 -0.1066     -0.1033      0.4218E-02
   30    -0.2527E-01 -0.6056E-01  0.1198      0.4056E-01   0.000       0.000     -0.6820E-01  0.2132     -0.1033      0.4218E-02
   31    -0.2004     -0.5235     -0.1571     -0.5062E-01 -0.1447      0.1842     -0.8353E-01  0.1064      0.1804     -0.2348E-01
   32     0.2004      0.5235      0.1571      0.5062E-01 -0.1447      0.1842      0.8353E-01 -0.1064     -0.1804      0.2348E-01
   33     0.2004      0.5235      0.1571      0.5062E-01   0.000       0.000     -0.1671      0.2127     -0.1804      0.2348E-01
   34      0.000       0.000       0.000       0.000       0.000       0.000      0.7388E-02  0.1307E-01   0.000       0.000    
   35    -0.1325     -0.2498     -0.6070E-01  0.4076E-01  0.1003     -0.2255E-01 -0.5788E-01  0.1302E-01 -0.8767E-01  0.7241E-01
   36     0.1325      0.2498      0.6070E-01 -0.4076E-01  0.1003     -0.2255E-01  0.5788E-01 -0.1302E-01  0.8767E-01 -0.7241E-01
   37      0.000       0.000       0.000       0.000     -0.7388E-02 -0.1307E-01   0.000       0.000       0.000       0.000    
   38    -0.1325     -0.2498     -0.6070E-01  0.4076E-01   0.000       0.000      0.1158     -0.2604E-01 -0.8767E-01  0.7241E-01
   39      0.000       0.000       0.000       0.000       0.000       0.000      0.3491E-02  0.7670E-02   0.000       0.000    
   40     0.1008E-01  0.7741E-02 -0.3116E-01  0.1065E-01  0.3397E-01 -0.3694E-01 -0.1961E-01  0.2133E-01 -0.3531E-01  0.2683E-01
   41    -0.1008E-01 -0.7741E-02  0.3116E-01 -0.1065E-01  0.3397E-01 -0.3694E-01  0.1961E-01 -0.2133E-01  0.3531E-01 -0.2683E-01
   42      0.000       0.000       0.000       0.000     -0.3491E-02 -0.7670E-02   0.000       0.000       0.000       0.000    
   43     0.1008E-01  0.7741E-02 -0.3116E-01  0.1065E-01   0.000       0.000      0.3922E-01 -0.4265E-01 -0.3531E-01  0.2683E-01
   44    -0.2742E-02 -0.1825E-01 -0.5931E-02  0.4468E-02   0.000       0.000      0.9276E-02 -0.9799E-03 -0.9113E-02  0.1155E-01
   45    -0.1679E-02 -0.1118E-01 -0.3632E-02  0.2736E-02 -0.4197E-02  0.2441E-02 -0.4091E-02 -0.3029E-02 -0.5581E-02  0.7074E-02
   46     0.1679E-02  0.1118E-01  0.3632E-02 -0.2736E-02 -0.4197E-02  0.2441E-02  0.4091E-02  0.3029E-02  0.5581E-02 -0.7074E-02
   47      0.000       0.000       0.000       0.000     -0.1827E-02 -0.4862E-02   0.000       0.000       0.000       0.000    
   48     0.2922E-02 -0.2889E-02  0.7130E-02  0.3161E-01   0.000       0.000       0.000       0.000      0.6140E-01 -0.5123E-02
   49     0.2168E-02  0.1443E-01  0.4689E-02 -0.3532E-02  0.6911E-02  0.8177E-03  0.2698E-02 -0.2966E-02  0.7205E-02 -0.9132E-02
   50     0.2168E-02  0.1443E-01  0.4689E-02 -0.3532E-02 -0.6911E-02 -0.8177E-03  0.2698E-02 -0.2966E-02  0.7205E-02 -0.9132E-02

               6           6           7           7           8           8           9           9          10          10

    1      0.000       0.000       0.000       0.000     -0.3847     -0.1284       0.000       0.000       0.000       0.000    
    2      0.000       0.000       0.000       0.000     -0.2225     -0.7265E-01   0.000       0.000       0.000       0.000    
    3     0.4154E-01  0.1773      0.2398E-01  0.1023     -0.7557E-01  0.1006      0.7091E-02 -0.2259E-01  0.4094E-02 -0.1304E-01
    4     0.4154E-01  0.1773     -0.2398E-01 -0.1023      0.7557E-01 -0.1006      0.7091E-02 -0.2259E-01 -0.4094E-02  0.1304E-01
    5      0.000       0.000      0.4797E-01  0.2047      0.7557E-01 -0.1006       0.000       0.000      0.8188E-02 -0.2608E-01
    6     0.5567E-01  0.2060      0.3214E-01  0.1189     -0.1614      0.9439E-01  0.1421     -0.6145E-01  0.8206E-01 -0.3548E-01
    7     0.5567E-01  0.2060     -0.3214E-01 -0.1189      0.1614     -0.9439E-01  0.1421     -0.6145E-01 -0.8206E-01  0.3548E-01
    8      0.000       0.000      0.6428E-01  0.2379      0.1614     -0.9439E-01   0.000       0.000      0.1641     -0.7096E-01
    9      0.000       0.000     -0.1324E-01  0.4351E-01   0.000       0.000       0.000       0.000     -0.3818      0.6500E-03
   10    -0.1121     -0.1275      0.6471E-01  0.7358E-01 -0.4398E-01 -0.7111E-02  0.5458E-01  0.1541     -0.3151E-01 -0.8894E-01
   11    -0.1121     -0.1275     -0.6471E-01 -0.7358E-01  0.4398E-01  0.7111E-02  0.5458E-01  0.1541      0.3151E-01  0.8894E-01
   12     0.1324E-01 -0.4351E-01   0.000       0.000       0.000       0.000      0.3818     -0.6500E-03   0.000       0.000    
   13      0.000       0.000     -0.1294     -0.1472     -0.4398E-01 -0.7111E-02   0.000       0.000      0.6302E-01  0.1779    
   14      0.000       0.000     -0.2023E-02  0.1897E-01   0.000       0.000       0.000       0.000     -0.1735      0.2190E-02
   15    -0.4977E-01 -0.3736E-01  0.2873E-01  0.2157E-01 -0.9606E-02 -0.3658E-01 -0.9219E-02  0.2344E-01  0.5323E-02 -0.1354E-01
   16    -0.4977E-01 -0.3736E-01 -0.2873E-01 -0.2157E-01  0.9606E-02  0.3658E-01 -0.9219E-02  0.2344E-01 -0.5323E-02  0.1354E-01
   17     0.2023E-02 -0.1897E-01   0.000       0.000       0.000       0.000      0.1735     -0.2190E-02   0.000       0.000    
   18      0.000       0.000     -0.5746E-01 -0.4314E-01 -0.9606E-02 -0.3658E-01   0.000       0.000     -0.1065E-01  0.2707E-01
   19      0.000       0.000      0.1647E-01  0.1741E-01  0.7623E-02 -0.3956E-02   0.000       0.000     -0.6485E-03  0.1727E-01
   20    -0.7165E-02 -0.1129E-01 -0.7761E-02 -0.1769E-02  0.4668E-02 -0.2422E-02 -0.2159E-02 -0.1350E-01  0.4534E-02  0.2236E-02
   21    -0.7165E-02 -0.1129E-01  0.7761E-02  0.1769E-02 -0.4668E-02  0.2422E-02 -0.2159E-02 -0.1350E-01 -0.4534E-02 -0.2236E-02
   22    -0.3970E-02  0.5201E-02   0.000       0.000       0.000       0.000      0.6333E-02  0.1099E-01   0.000       0.000    
   23      0.000       0.000       0.000       0.000      0.1080      0.6261E-01   0.000       0.000       0.000       0.000    
   24     0.1249E-01  0.1032E-01  0.4405E-02  0.9639E-02 -0.6027E-02  0.3127E-02 -0.2383E-02  0.8460E-02  0.3102E-02  0.1266E-01
   25    -0.1249E-01 -0.1032E-01  0.4405E-02  0.9639E-02 -0.6027E-02  0.3127E-02  0.2383E-02 -0.8460E-02  0.3102E-02  0.1266E-01
   26      0.000       0.000       0.000       0.000      0.4054     -0.7598E-02   0.000       0.000       0.000       0.000    
   27      0.000       0.000       0.000       0.000      0.2340     -0.2868E-02   0.000       0.000       0.000       0.000    
   28     0.1820     -0.4749E-02  0.1051     -0.2742E-02 -0.4206E-01 -0.1186      0.1842E-01  0.1488E-01  0.1063E-01  0.8589E-02
   29     0.1820     -0.4749E-02 -0.1051      0.2742E-02  0.4206E-01  0.1186      0.1842E-01  0.1488E-01 -0.1063E-01 -0.8589E-02
   30      0.000       0.000      0.2102     -0.5483E-02  0.4206E-01  0.1186       0.000       0.000      0.2127E-01  0.1718E-01
   31     0.2134      0.1629E-02  0.1232      0.9404E-03 -0.1258     -0.1383      0.1524     -0.2760E-01  0.8797E-01 -0.1594E-01
   32     0.2134      0.1629E-02 -0.1232     -0.9404E-03  0.1258      0.1383      0.1524     -0.2760E-01 -0.8797E-01  0.1594E-01
   33      0.000       0.000      0.2464      0.1881E-02  0.1258      0.1383       0.000       0.000      0.1759     -0.3187E-01
   34      0.000       0.000     -0.3873E-01  0.2384E-01   0.000       0.000       0.000       0.000      0.3182     -0.2110    
   35     0.1517      0.7612E-01 -0.8759E-01 -0.4395E-01  0.4410E-01  0.6353E-02  0.3993E-01  0.1585     -0.2306E-01 -0.9150E-01
   36     0.1517      0.7612E-01  0.8759E-01  0.4395E-01 -0.4410E-01 -0.6353E-02  0.3993E-01  0.1585      0.2306E-01  0.9150E-01
   37     0.3873E-01 -0.2384E-01   0.000       0.000       0.000       0.000     -0.3182      0.2110       0.000       0.000    
   38      0.000       0.000      0.1752      0.8790E-01  0.4410E-01  0.6353E-02   0.000       0.000      0.4611E-01  0.1830    
   39      0.000       0.000     -0.1784E-01  0.6766E-02   0.000       0.000       0.000       0.000      0.1456     -0.9430E-01
   40     0.4876E-01  0.3867E-01 -0.2815E-01 -0.2233E-01  0.2010E-01 -0.3204E-01  0.2066E-01  0.1441E-01 -0.1193E-01 -0.8318E-02
   41     0.4876E-01  0.3867E-01  0.2815E-01  0.2233E-01 -0.2010E-01  0.3204E-01  0.2066E-01  0.1441E-01  0.1193E-01  0.8318E-02
   42     0.1784E-01 -0.6766E-02   0.000       0.000       0.000       0.000     -0.1456      0.9430E-01   0.000       0.000    
   43      0.000       0.000      0.5630E-01  0.4465E-01  0.2010E-01 -0.3204E-01   0.000       0.000      0.2386E-01  0.1664E-01
   44      0.000       0.000      0.2101E-01  0.1152E-01  0.6093E-02  0.6053E-02   0.000       0.000     -0.1011E-01 -0.1402E-01
   45    -0.1273E-01 -0.4070E-02 -0.3678E-02 -0.7059E-02  0.3731E-02  0.3706E-02  0.5685E-02  0.1244E-01  0.2536E-02 -0.4374E-02
   46    -0.1273E-01 -0.4070E-02  0.3678E-02  0.7059E-02 -0.3731E-02 -0.3706E-02  0.5685E-02  0.1244E-01 -0.2536E-02  0.4374E-02
   47     0.4025E-02 -0.5159E-02   0.000       0.000       0.000       0.000     -0.8176E-03 -0.1266E-01   0.000       0.000    
   48      0.000       0.000       0.000       0.000      0.1217     -0.2750E-01   0.000       0.000       0.000       0.000    
   49     0.1315E-01  0.9466E-02  0.1044E-01  0.1817E-02 -0.4817E-02 -0.4785E-02 -0.6672E-02 -0.5722E-02 -0.4430E-02 -0.1225E-01
   50    -0.1315E-01 -0.9466E-02  0.1044E-01  0.1817E-02 -0.4817E-02 -0.4785E-02  0.6672E-02  0.5722E-02 -0.4430E-02 -0.1225E-01

              11          11          12          12          13          13          14          14          15          15

    1    -0.2300     -0.6633E-01  0.3383     -0.3841       0.000       0.000       0.000       0.000       0.000       0.000    
    2    -0.1908     -0.4874E-01  0.2895     -0.3263       0.000       0.000       0.000       0.000       0.000       0.000    
    3     0.1066      0.4794E-01 -0.2378     -0.2452     -0.1656      0.3933E-01 -0.9562E-01  0.2271E-01 -0.4717E-01  0.2008    
    4    -0.1066     -0.4794E-01  0.2378      0.2452     -0.1656      0.3933E-01  0.9562E-01 -0.2271E-01 -0.4717E-01  0.2008    
    5    -0.1066     -0.4794E-01  0.2378      0.2452       0.000       0.000     -0.1912      0.4541E-01   0.000       0.000    
    6     0.1477     -0.4447       1.119      0.6393     -0.3557     -0.4226     -0.2053     -0.2440     -0.6994      0.7297    
    7    -0.1477      0.4447      -1.119     -0.6393     -0.3557     -0.4226      0.2053      0.2440     -0.6994      0.7297    
    8    -0.1477      0.4447      -1.119     -0.6393       0.000       0.000     -0.4107     -0.4879       0.000       0.000    
    9      0.000       0.000       0.000       0.000       0.000       0.000      0.7655E-03 -0.2345       0.000       0.000    
   10     0.4895      0.1555     -0.3320     -0.5100      0.5346     -0.2908     -0.3087      0.1679     -0.4124      0.4659    
   11    -0.4895     -0.1555      0.3320      0.5100      0.5346     -0.2908      0.3087     -0.1679     -0.4124      0.4659    
   12      0.000       0.000       0.000       0.000     -0.7655E-03  0.2345       0.000       0.000     -0.8949     -0.5397    
   13     0.4895      0.1555     -0.3320     -0.5100       0.000       0.000      0.6174     -0.3358       0.000       0.000    
   14      0.000       0.000       0.000       0.000       0.000       0.000      0.1594E-02 -0.1038       0.000       0.000    
   15     0.1441E-01 -0.8970E-02  0.1221E-01 -0.8339E-02  0.3444E-01  0.1134E-01 -0.1989E-01 -0.6546E-02  0.1625      0.1270    
   16    -0.1441E-01  0.8970E-02 -0.1221E-01  0.8339E-02  0.3444E-01  0.1134E-01  0.1989E-01  0.6546E-02  0.1625      0.1270    
   17      0.000       0.000       0.000       0.000     -0.1594E-02  0.1038       0.000       0.000     -0.1776     -0.1242    
   18     0.1441E-01 -0.8970E-02  0.1221E-01 -0.8339E-02   0.000       0.000      0.3977E-01  0.1309E-01   0.000       0.000    
   19     0.4118E-01 -0.2053E-01  0.6568E-01  0.1540E-01   0.000       0.000      0.8663E-01  0.8380E-02   0.000       0.000    
   20     0.2521E-01 -0.1257E-01  0.4022E-01  0.9431E-02 -0.4301E-01  0.7245E-03 -0.3160E-01 -0.1152E-01  0.6153E-01 -0.2569E-01
   21    -0.2521E-01  0.1257E-01 -0.4022E-01 -0.9431E-02 -0.4301E-01  0.7245E-03  0.3160E-01  0.1152E-01  0.6153E-01 -0.2569E-01
   22      0.000       0.000       0.000       0.000     -0.7417E-02 -0.1308E-01   0.000       0.000     -0.6471E-01  0.1186    
   23    -0.8001E-01 -0.9698E-02  0.1459     -0.1447       0.000       0.000       0.000       0.000       0.000       0.000    
   24    -0.3255E-01  0.1623E-01 -0.5192E-01 -0.1217E-01  0.6158E-01  0.9741E-02  0.3031E-01 -0.3622E-02 -0.2660E-01 -0.6367E-01
   25    -0.3255E-01  0.1623E-01 -0.5192E-01 -0.1217E-01 -0.6158E-01 -0.9741E-02  0.3031E-01 -0.3622E-02  0.2660E-01  0.6367E-01
   26    -0.6527E-01  0.2303      0.1780     -0.4799       0.000       0.000       0.000       0.000       0.000       0.000    
   27    -0.5947E-01  0.1877      0.1502     -0.4095       0.000       0.000       0.000       0.000       0.000       0.000    
   28    -0.1567E-01  0.1159     -0.3286     -0.9332E-01  0.1547     -0.7097E-01  0.8933E-01 -0.4098E-01 -0.5685E-01  0.1983    
   29     0.1567E-01 -0.1159      0.3286      0.9332E-01  0.1547     -0.7097E-01 -0.8933E-01  0.4098E-01 -0.5685E-01  0.1983    
   30     0.1567E-01 -0.1159      0.3286      0.9332E-01   0.000       0.000      0.1787     -0.8195E-01   0.000       0.000    
   31    -0.4556     -0.1097       1.093      0.6825      0.2010E-01 -0.5519      0.1160E-01 -0.3187      0.2542      0.9782    
   32     0.4556      0.1097      -1.093     -0.6825      0.2010E-01 -0.5519     -0.1160E-01  0.3187      0.2542      0.9782    
   33     0.4556      0.1097      -1.093     -0.6825       0.000       0.000      0.2321E-01 -0.6373       0.000       0.000    
   34      0.000       0.000       0.000       0.000       0.000       0.000      0.1450      0.1843       0.000       0.000    
   35     0.1267     -0.4977      0.6064      0.5083E-01  0.6003     -0.1000     -0.3466      0.5775E-01 -0.1325     -0.6079    
   36    -0.1267      0.4977     -0.6064     -0.5083E-01  0.6003     -0.1000      0.3466     -0.5775E-01 -0.1325     -0.6079    
[...]

              36          36          37          37          38          38          39          39          40          40

    1      0.000       0.000       0.000       0.000       0.000       0.000     -0.2811       0.000       0.000       0.000    
    2      0.000       0.000       0.000       0.000       0.000       0.000     -0.3947       0.000       0.000       0.000    
    3      0.000       0.000       0.000       0.000      0.1852     -0.1852       0.000       0.000     -0.7507     -0.7507    
    4    -0.3750       0.000       1.494       0.000       0.000       0.000       0.000       0.000       0.000       0.000    
    5      0.000       0.000       0.000       0.000      0.1852      0.1852       0.000       0.000     -0.7507      0.7507    
    6      0.000       0.000       0.000       0.000      0.2049     -0.2049       0.000       0.000      0.9197      0.9197    
    7     0.7037       0.000      -2.725       0.000       0.000       0.000       0.000       0.000       0.000       0.000    
    8      0.000       0.000       0.000       0.000      0.2049      0.2049       0.000       0.000      0.9197     -0.9197    
    9      0.000       3.150       0.000      0.6329       0.000       0.000      0.6461       0.000       0.000       0.000    
   10    -0.2148       0.000     -0.7428       0.000       0.000       0.000       0.000       0.000       0.000       0.000    
   11      0.000       0.000       0.000       0.000     -0.1171      0.1171       0.000       0.000     -0.9442E-02 -0.9442E-02
   12      0.000      -1.819       0.000     -0.3654       0.000       0.000       1.119       0.000       0.000       0.000    
   13      0.000       0.000       0.000       0.000     -0.1171     -0.1171       0.000       0.000     -0.9442E-02  0.9442E-02
   14      0.000      -1.092       0.000     -0.2835       0.000       0.000     -0.1729       0.000       0.000       0.000    
   15    -0.3720       0.000      0.7811       0.000       0.000       0.000       0.000       0.000       0.000       0.000    
   16      0.000       0.000       0.000       0.000      0.1749     -0.1749       0.000       0.000     -0.4209     -0.4209    
   17      0.000      0.6302       0.000      0.1637       0.000       0.000     -0.2994       0.000       0.000       0.000    
   18      0.000       0.000       0.000       0.000      0.1749      0.1749       0.000       0.000     -0.4209      0.4209    
   19      0.000       0.000       0.000       0.000      0.2415      0.2415       0.000       0.000      0.1730     -0.1730    
   20      0.000       0.000       0.000       0.000      0.2721     -0.2721       0.000       0.000      0.9803E-01  0.9803E-01
   21    -0.4226       0.000      0.2430       0.000       0.000       0.000       0.000      0.2259       0.000       0.000    
   22      0.000       0.000       0.000       0.000      0.5312      0.5312       0.000       0.000      0.2580     -0.2580    
   23      0.000       0.000       0.000       0.000       0.000       0.000       1.119       0.000       0.000       0.000    
   24      0.000       0.000       0.000       0.000      0.5162     -0.5162       0.000       0.000      0.2948      0.2948    
   25    -0.5456       0.000      0.3138       0.000       0.000       0.000       0.000     -0.1750       0.000       0.000    
   26      0.000       0.000       0.000       0.000       0.000       0.000       0.000       0.000       0.000     -0.2811    
   27      0.000       0.000       0.000       0.000       0.000       0.000       0.000       0.000       0.000     -0.3947    
   28     0.3900     -0.3900      0.1852     -0.1852       0.000       0.000      0.7507      0.7507       0.000       0.000    
   29      0.000       0.000       0.000       0.000       0.000      -1.494       0.000       0.000       0.000       0.000    
   30    -0.3900     -0.3900     -0.1852     -0.1852       0.000       0.000     -0.7507      0.7507       0.000       0.000    
   31     -1.398       1.398      0.2049     -0.2049       0.000       0.000     -0.9197     -0.9197       0.000       0.000    
   32      0.000       0.000       0.000       0.000       0.000       2.725       0.000       0.000       0.000       0.000    
   33      1.398       1.398     -0.2049     -0.2049       0.000       0.000      0.9197     -0.9197       0.000       0.000    
   34      0.000       0.000       0.000       0.000      0.6329       0.000       0.000       0.000       0.000      0.6461    
   35      0.000       0.000       0.000       0.000       0.000     -0.7428       0.000       0.000       0.000       0.000    
   36     -1.008       1.008      0.1171     -0.1171       0.000       0.000     -0.9442E-02 -0.9442E-02   0.000       0.000    
   37      0.000       0.000       0.000       0.000     -0.3654       0.000       0.000       0.000       0.000       1.119    
   38      1.008       1.008     -0.1171     -0.1171       0.000       0.000      0.9442E-02 -0.9442E-02   0.000       0.000    
   39      0.000       0.000       0.000       0.000     -0.2835       0.000       0.000       0.000       0.000     -0.1729    
   40      0.000       0.000       0.000       0.000       0.000      0.7811       0.000       0.000       0.000       0.000    
   41    -0.7535E-01  0.7535E-01 -0.1749      0.1749       0.000       0.000     -0.4209     -0.4209       0.000       0.000    
   42      0.000       0.000       0.000       0.000      0.1637       0.000       0.000       0.000       0.000     -0.2994    
   43     0.7535E-01  0.7535E-01  0.1749      0.1749       0.000       0.000      0.4209     -0.4209       0.000       0.000    
   44     0.2073      0.2073     -0.2415     -0.2415       0.000       0.000      0.1730     -0.1730       0.000       0.000    
   45     0.2399     -0.2399      0.2721     -0.2721       0.000       0.000     -0.9803E-01 -0.9803E-01   0.000       0.000    
   46      0.000       0.000       0.000       0.000       0.000     -0.2430       0.000       0.000     -0.2259       0.000    
   47    -0.1429     -0.1429     -0.5312     -0.5312       0.000       0.000      0.2580     -0.2580       0.000       0.000    
   48      0.000       0.000       0.000       0.000       0.000       0.000       0.000       0.000       0.000      -1.119    
   49    -0.7635E-01  0.7635E-01  0.5162     -0.5162       0.000       0.000     -0.2948     -0.2948       0.000       0.000    
   50      0.000       0.000       0.000       0.000       0.000     -0.3138       0.000       0.000      0.1750       0.000    

              41          41          42          42          43          43          44          44          45          45

    1     0.3782      0.3782       0.000       0.000      0.2746      0.2746       0.000       0.000       0.000       0.000    
    2     0.4663      0.4663       0.000       0.000      0.4019      0.4019       0.000       0.000       0.000       0.000    
    3      0.000       0.000       0.000     -0.2979       0.000       0.000       0.000     -0.5146       0.000       0.000    
    4      0.000       0.000       0.000       0.000       0.000       0.000       0.000       0.000      -1.477       0.000    
    5      0.000       0.000     -0.2979       0.000       0.000       0.000     -0.5146       0.000       0.000       0.000    
    6      0.000       0.000       0.000      0.6287       0.000       0.000       0.000       1.660       0.000       0.000    
    7      0.000       0.000       0.000       0.000       0.000       0.000       0.000       0.000       5.467       0.000    
    8      0.000       0.000      0.6287       0.000       0.000       0.000       1.660       0.000       0.000       0.000    
    9     0.1007      0.1007       0.000       0.000       1.326       1.326       0.000       0.000       0.000       1.526    
   10      0.000       0.000       0.000       0.000       0.000       0.000       0.000       0.000       4.439       0.000    
   11      0.000       0.000       0.000      -1.132       0.000       0.000       0.000      -1.905       0.000       0.000    
   12     0.1745      0.1745       0.000       0.000       2.297       2.297       0.000       0.000       0.000     -0.8810    
   13      0.000       0.000      -1.132       0.000       0.000       0.000      -1.905       0.000       0.000       0.000    
   14     0.1112E-01  0.1112E-01   0.000       0.000     -0.3108     -0.3108       0.000       0.000       0.000     -0.2783    
   15      0.000       0.000       0.000       0.000       0.000       0.000       0.000       0.000      -1.112       0.000    
   16      0.000       0.000       0.000      0.3418       0.000       0.000       0.000      0.7042       0.000       0.000    
   17     0.1925E-01  0.1925E-01   0.000       0.000     -0.5383     -0.5383       0.000       0.000       0.000      0.1607    
   18      0.000       0.000      0.3418       0.000       0.000       0.000      0.7042       0.000       0.000       0.000    
   19      0.000       0.000      0.7113       0.000       0.000       0.000      0.6214E-01   0.000       0.000       0.000    
   20      0.000       0.000       0.000     -0.7251       0.000       0.000       0.000      0.7852       0.000       0.000    
   21    -0.6660      0.6660       0.000       0.000      0.1720E-01 -0.1720E-01   0.000       0.000      0.7177       0.000    
   22      0.000       0.000     -0.3662       0.000       0.000       0.000       1.041       0.000       0.000       0.000    
   23     0.1474      0.1474       0.000       0.000     -0.1616     -0.1616       0.000       0.000       0.000       0.000    
   24      0.000       0.000       0.000      0.3381       0.000       0.000       0.000      0.6868       0.000       0.000    
   25     0.5159     -0.5159       0.000       0.000     -0.1332E-01  0.1332E-01   0.000       0.000      0.9265       0.000    
   26      0.000       0.000     -0.3782      0.3782       0.000       0.000     -0.2746      0.2746       0.000       0.000    
   27      0.000       0.000     -0.4663      0.4663       0.000       0.000     -0.4019      0.4019       0.000       0.000    
   28      0.000      0.2979       0.000       0.000       0.000      0.5146       0.000       0.000     -0.2535      0.2535    
   29      0.000       0.000       0.000       0.000       0.000       0.000       0.000       0.000       0.000       0.000    
   30    -0.2979       0.000       0.000       0.000     -0.5146       0.000       0.000       0.000      0.2535      0.2535    
   31      0.000     -0.6287       0.000       0.000       0.000      -1.660       0.000       0.000      -2.540       2.540    
   32      0.000       0.000       0.000       0.000       0.000       0.000       0.000       0.000       0.000       0.000    
   33     0.6287       0.000       0.000       0.000       1.660       0.000       0.000       0.000       2.540       2.540    
   34      0.000       0.000     -0.1007      0.1007       0.000       0.000      -1.326       1.326       0.000       0.000    
   35      0.000       0.000       0.000       0.000       0.000       0.000       0.000       0.000       0.000       0.000    
   36      0.000      -1.132       0.000       0.000       0.000      -1.905       0.000       0.000      0.2893     -0.2893    
   37      0.000       0.000     -0.1745      0.1745       0.000       0.000      -2.297       2.297       0.000       0.000    
   38      1.132       0.000       0.000       0.000       1.905       0.000       0.000       0.000     -0.2893     -0.2893    
   39      0.000       0.000     -0.1112E-01  0.1112E-01   0.000       0.000      0.3108     -0.3108       0.000       0.000    
   40      0.000       0.000       0.000       0.000       0.000       0.000       0.000       0.000       0.000       0.000    
   41      0.000      0.3418       0.000       0.000       0.000      0.7042       0.000       0.000      0.4672     -0.4672    
   42      0.000       0.000     -0.1925E-01  0.1925E-01   0.000       0.000      0.5383     -0.5383       0.000       0.000    
   43    -0.3418       0.000       0.000       0.000     -0.7042       0.000       0.000       0.000     -0.4672     -0.4672    
   44     0.7113       0.000       0.000       0.000      0.6214E-01   0.000       0.000       0.000     -0.1510     -0.1510    
   45      0.000      0.7251       0.000       0.000       0.000     -0.7852       0.000       0.000      0.2808     -0.2808    
   46      0.000       0.000     -0.6660     -0.6660       0.000       0.000      0.1720E-01  0.1720E-01   0.000       0.000    
   47    -0.3662       0.000       0.000       0.000       1.041       0.000       0.000       0.000     -0.4721     -0.4721    
   48      0.000       0.000      0.1474     -0.1474       0.000       0.000     -0.1616      0.1616       0.000       0.000    
   49      0.000     -0.3381       0.000       0.000       0.000     -0.6868       0.000       0.000      0.4085     -0.4085    
   50      0.000       0.000      0.5159      0.5159       0.000       0.000     -0.1332E-01 -0.1332E-01   0.000       0.000    

              46          46          47          47          48          48          49          49          50          50

    1      0.000       0.000       0.000       0.000       0.000       0.000      -2.206       0.000       0.000       0.000    
    2      0.000       0.000       0.000       0.000       0.000       0.000      0.7082       0.000       0.000       0.000    
    3    -0.2535      0.2535       0.000       0.000      -3.115       0.000       0.000       0.000     -0.6457E-01 -0.6457E-01
    4      0.000       0.000       2.575       2.575       0.000       0.000       0.000       0.000       0.000       0.000    
    5    -0.2535     -0.2535       0.000       0.000       0.000      -3.115       0.000       0.000     -0.6457E-01  0.6457E-01
    6     -2.540       2.540       0.000       0.000       16.73       0.000       0.000       0.000      0.2418      0.2418    
    7      0.000       0.000      -16.18      -16.18       0.000       0.000       0.000       0.000       0.000       0.000    
    8     -2.540      -2.540       0.000       0.000       0.000       16.73       0.000       0.000      0.2418     -0.2418    
    9      0.000       0.000      0.5799     -0.5799       0.000       0.000     -0.2263       0.000       0.000       0.000    
   10      0.000       0.000      -5.693      -5.693       0.000       0.000       0.000       0.000       0.000       0.000    
   11    -0.2893      0.2893       0.000       0.000       6.163       0.000       0.000       0.000      0.6585      0.6585    
   12      0.000       0.000     -0.3348      0.3348       0.000       0.000     -0.3920       0.000       0.000       0.000    
   13    -0.2893     -0.2893       0.000       0.000       0.000       6.163       0.000       0.000      0.6585     -0.6585    
   14      0.000       0.000     -0.1421      0.1421       0.000       0.000      0.1369E-01   0.000       0.000       0.000    
   15      0.000       0.000     -0.1247     -0.1247       0.000       0.000       0.000       0.000       0.000       0.000    
   16    -0.4672      0.4672       0.000       0.000     -0.2166       0.000       0.000       0.000     -0.1341     -0.1341    
   17      0.000       0.000      0.8204E-01 -0.8204E-01   0.000       0.000      0.2372E-01   0.000       0.000       0.000    
   18    -0.4672     -0.4672       0.000       0.000       0.000     -0.2166       0.000       0.000     -0.1341      0.1341    
   19     0.1510      0.1510       0.000       0.000       0.000      -1.071       0.000       0.000     -0.1936      0.1936    
   20     0.2808     -0.2808       0.000       0.000      0.9449       0.000       0.000       0.000      0.8569E-01  0.8569E-01
   21      0.000       0.000     -0.5700     -0.5700       0.000       0.000       0.000     -0.1231       0.000       0.000    
   22     0.4721      0.4721       0.000       0.000       0.000      0.3654       0.000       0.000     -0.4155E-01  0.4155E-01
   23      0.000       0.000       0.000       0.000       0.000       0.000     -0.1183       0.000       0.000       0.000    
   24     0.4085     -0.4085       0.000       0.000     -0.6232       0.000       0.000       0.000     -0.1785     -0.1785    
   25      0.000       0.000     -0.7359     -0.7359       0.000       0.000       0.000      0.9539E-01   0.000       0.000    
   26      0.000       0.000       0.000       0.000       0.000       0.000       0.000       0.000       0.000      -2.206    
   27      0.000       0.000       0.000       0.000       0.000       0.000       0.000       0.000       0.000      0.7082    
   28      0.000       0.000      -3.115       0.000       0.000       0.000      0.6457E-01  0.6457E-01   0.000       0.000    
   29      0.000       1.477       0.000       0.000       2.575      -2.575       0.000       0.000       0.000       0.000    
   30      0.000       0.000       0.000       3.115       0.000       0.000     -0.6457E-01  0.6457E-01   0.000       0.000    
   31      0.000       0.000       16.73       0.000       0.000       0.000     -0.2418     -0.2418       0.000       0.000    
   32      0.000      -5.467       0.000       0.000      -16.18       16.18       0.000       0.000       0.000       0.000    
   33      0.000       0.000       0.000      -16.73       0.000       0.000      0.2418     -0.2418       0.000       0.000    
   34      1.526       0.000       0.000       0.000     -0.5799     -0.5799       0.000       0.000       0.000     -0.2263    
   35      0.000       4.439       0.000       0.000       5.693      -5.693       0.000       0.000       0.000       0.000    
   36      0.000       0.000      -6.163       0.000       0.000       0.000      0.6585      0.6585       0.000       0.000    
   37    -0.8810       0.000       0.000       0.000      0.3348      0.3348       0.000       0.000       0.000     -0.3920    
   38      0.000       0.000       0.000       6.163       0.000       0.000     -0.6585      0.6585       0.000       0.000    
   39    -0.2783       0.000       0.000       0.000      0.1421      0.1421       0.000       0.000       0.000      0.1369E-01
   40      0.000      -1.112       0.000       0.000      0.1247     -0.1247       0.000       0.000       0.000       0.000    
   41      0.000       0.000      0.2166       0.000       0.000       0.000     -0.1341     -0.1341       0.000       0.000    
   42     0.1607       0.000       0.000       0.000     -0.8204E-01 -0.8204E-01   0.000       0.000       0.000      0.2372E-01
   43      0.000       0.000       0.000     -0.2166       0.000       0.000      0.1341     -0.1341       0.000       0.000    
   44      0.000       0.000       0.000       1.071       0.000       0.000     -0.1936      0.1936       0.000       0.000    
   45      0.000       0.000      0.9449       0.000       0.000       0.000     -0.8569E-01 -0.8569E-01   0.000       0.000    
   46      0.000     -0.7177       0.000       0.000     -0.5700      0.5700       0.000       0.000      0.1231       0.000    
   47      0.000       0.000       0.000     -0.3654       0.000       0.000     -0.4155E-01  0.4155E-01   0.000       0.000    
   48      0.000       0.000       0.000       0.000       0.000       0.000       0.000       0.000       0.000      0.1183    
   49      0.000       0.000     -0.6232       0.000       0.000       0.000      0.1785      0.1785       0.000       0.000    
   50      0.000     -0.9265       0.000       0.000     -0.7359      0.7359       0.000       0.000     -0.9539E-01   0.000    
 EIGENVECTORS IN FORTRAN UNIT  8
 TTTTTTTTTTTTTTTTTTTTTTTTTTTTTT END         TELAPSE       18.80 TCPU       17.94
 EEEEEEEEEE TERMINATION  DATE 11 01 2016 TIME 14:05:27.2
